# LAMMPS data file written by OVITO Basic 3.4.4
1440 atoms
2 atom types
-30 30 xlo xhi
-30 30 ylo yhi
 0 47.43 zlo zhi

# 1  O
# 2  Ti

 Masses

 1 15.999400 # O
 2 47.867001 # Ti
 
Atoms  # full

1 1 2 2.196 7.728 0.0 0.0
2 1 2 2.196 7.139 2.957 0.0
3 1 2 2.196 11.504 0.0 0.0
4 1 2 2.196 10.628 4.402 0.0
5 1 1 -1.098 9.616 0.0 0.398
6 1 1 -1.098 8.884 3.68 0.398
7 1 1 -1.098 7.728 0.0 1.973
8 1 1 -1.098 7.139 2.957 1.973
9 1 1 -1.098 11.504 0.0 1.973
10 1 1 -1.098 10.628 4.402 1.973
11 1 2 2.196 9.616 0.0 2.372
12 1 2 2.196 8.884 3.68 2.372
13 1 1 -1.098 9.431 1.876 2.77
14 1 1 -1.098 9.616 0.0 4.345
15 1 1 -1.098 8.884 3.68 4.345
16 1 2 2.196 9.431 1.876 4.743
17 1 1 -1.098 7.579 1.508 5.141
18 1 1 -1.098 11.273 2.242 5.141
19 1 1 -1.098 9.431 1.876 6.716
20 1 2 2.196 7.579 1.508 7.114
21 1 2 2.196 11.282 2.244 7.114
22 1 1 -1.098 7.728 0.0 7.513
23 1 1 -1.098 7.139 2.957 7.513
24 1 1 -1.098 11.504 0.0 7.513
25 1 1 -1.098 10.628 4.402 7.513
26 1 1 -1.098 7.579 1.508 9.088
27 1 1 -1.098 11.282 2.244 9.088
28 1 2 2.196 7.728 0.0 9.486
29 1 2 2.196 7.139 2.957 9.486
30 1 2 2.196 11.504 0.0 9.486
31 1 2 2.196 10.628 4.402 9.486
32 1 2 2.196 5.464 5.464 0.0
33 1 2 2.196 8.134 8.134 0.0
34 1 1 -1.098 6.799 6.799 0.398
35 1 1 -1.098 5.464 5.464 1.973
36 1 1 -1.098 8.134 8.134 1.973
37 1 2 2.196 6.799 6.799 2.372
38 1 1 -1.098 7.995 5.342 2.77
39 1 1 -1.098 6.799 6.799 4.345
40 1 2 2.196 7.995 5.342 4.743
41 1 1 -1.098 6.425 4.293 5.141
42 1 1 -1.098 9.557 6.385 5.141
43 1 1 -1.098 7.995 5.342 6.716
44 1 2 2.196 6.425 4.293 7.114
45 1 2 2.196 9.565 6.391 7.114
46 1 1 -1.098 5.464 5.464 7.513
47 1 1 -1.098 8.134 8.134 7.513
48 1 1 -1.098 6.425 4.293 9.088
49 1 1 -1.098 9.565 6.391 9.088
50 1 2 2.196 5.464 5.464 9.486
51 1 2 2.196 8.134 8.134 9.486
52 1 2 2.196 2.957 7.139 0.0
53 1 2 2.196 4.402 10.628 0.0
54 1 1 -1.098 3.68 8.884 0.398
55 1 1 -1.098 2.957 7.139 1.973
56 1 1 -1.098 4.402 10.628 1.973
57 1 2 2.196 3.68 8.884 2.372
58 1 1 -1.098 5.342 7.995 2.77
59 1 1 -1.098 3.68 8.884 4.345
60 1 2 2.196 5.342 7.995 4.743
61 1 1 -1.098 4.293 6.425 5.141
62 1 1 -1.098 6.385 9.557 5.141
63 1 1 -1.098 5.342 7.995 6.716
64 1 2 2.196 4.293 6.425 7.114
65 1 2 2.196 6.391 9.565 7.114
66 1 1 -1.098 2.957 7.139 7.513
67 1 1 -1.098 4.402 10.628 7.513
68 1 1 -1.098 4.293 6.425 9.088
69 1 1 -1.098 6.391 9.565 9.088
70 1 2 2.196 2.957 7.139 9.486
71 1 2 2.196 4.402 10.628 9.486
72 1 2 2.196 0.0 7.728 0.0
73 1 2 2.196 0.0 11.504 0.0
74 1 1 -1.098 0.0 9.616 0.398
75 1 1 -1.098 0.0 7.728 1.973
76 1 1 -1.098 0.0 11.504 1.973
77 1 2 2.196 0.0 9.616 2.372
78 1 1 -1.098 1.876 9.431 2.77
79 1 1 -1.098 0.0 9.616 4.345
80 1 2 2.196 1.876 9.431 4.743
81 1 1 -1.098 1.508 7.579 5.141
82 1 1 -1.098 2.242 11.273 5.141
83 1 1 -1.098 1.876 9.431 6.716
84 1 2 2.196 1.508 7.579 7.114
85 1 2 2.196 2.244 11.282 7.114
86 1 1 -1.098 0.0 7.728 7.513
87 1 1 -1.098 0.0 11.504 7.513
88 1 1 -1.098 1.508 7.579 9.088
89 1 1 -1.098 2.244 11.282 9.088
90 1 2 2.196 0.0 7.728 9.486
91 1 2 2.196 0.0 11.504 9.486
92 1 2 2.196 -2.957 7.139 0.0
93 1 2 2.196 -4.402 10.628 0.0
94 1 1 -1.098 -3.68 8.884 0.398
95 1 1 -1.098 -2.957 7.139 1.973
96 1 1 -1.098 -4.402 10.628 1.973
97 1 2 2.196 -3.68 8.884 2.372
98 1 1 -1.098 -1.876 9.431 2.77
99 1 1 -1.098 -3.68 8.884 4.345
100 1 2 2.196 -1.876 9.431 4.743
101 1 1 -1.098 -1.508 7.579 5.141
102 1 1 -1.098 -2.242 11.273 5.141
103 1 1 -1.098 -1.876 9.431 6.716
104 1 2 2.196 -1.508 7.579 7.114
105 1 2 2.196 -2.244 11.282 7.114
106 1 1 -1.098 -2.957 7.139 7.513
107 1 1 -1.098 -4.402 10.628 7.513
108 1 1 -1.098 -1.508 7.579 9.088
109 1 1 -1.098 -2.244 11.282 9.088
110 1 2 2.196 -2.957 7.139 9.486
111 1 2 2.196 -4.402 10.628 9.486
112 1 2 2.196 -5.464 5.464 0.0
113 1 2 2.196 -8.134 8.134 0.0
114 1 1 -1.098 -6.799 6.799 0.398
115 1 1 -1.098 -5.464 5.464 1.973
116 1 1 -1.098 -8.134 8.134 1.973
117 1 2 2.196 -6.799 6.799 2.372
118 1 1 -1.098 -5.342 7.995 2.77
119 1 1 -1.098 -6.799 6.799 4.345
120 1 2 2.196 -5.342 7.995 4.743
121 1 1 -1.098 -4.293 6.425 5.141
122 1 1 -1.098 -6.385 9.557 5.141
123 1 1 -1.098 -5.342 7.995 6.716
124 1 2 2.196 -4.293 6.425 7.114
125 1 2 2.196 -6.391 9.565 7.114
126 1 1 -1.098 -5.464 5.464 7.513
127 1 1 -1.098 -8.134 8.134 7.513
128 1 1 -1.098 -4.293 6.425 9.088
129 1 1 -1.098 -6.391 9.565 9.088
130 1 2 2.196 -5.464 5.464 9.486
131 1 2 2.196 -8.134 8.134 9.486
132 1 2 2.196 -7.139 2.957 0.0
133 1 2 2.196 -10.628 4.402 0.0
134 1 1 -1.098 -8.884 3.68 0.398
135 1 1 -1.098 -7.139 2.957 1.973
136 1 1 -1.098 -10.628 4.402 1.973
137 1 2 2.196 -8.884 3.68 2.372
138 1 1 -1.098 -7.995 5.342 2.77
139 1 1 -1.098 -8.884 3.68 4.345
140 1 2 2.196 -7.995 5.342 4.743
141 1 1 -1.098 -6.425 4.293 5.141
142 1 1 -1.098 -9.557 6.385 5.141
143 1 1 -1.098 -7.995 5.342 6.716
144 1 2 2.196 -6.425 4.293 7.114
145 1 2 2.196 -9.565 6.391 7.114
146 1 1 -1.098 -7.139 2.957 7.513
147 1 1 -1.098 -10.628 4.402 7.513
148 1 1 -1.098 -6.425 4.293 9.088
149 1 1 -1.098 -9.565 6.391 9.088
150 1 2 2.196 -7.139 2.957 9.486
151 1 2 2.196 -10.628 4.402 9.486
152 1 2 2.196 -7.728 0.0 0.0
153 1 2 2.196 -11.504 0.0 0.0
154 1 1 -1.098 -9.616 0.0 0.398
155 1 1 -1.098 -7.728 0.0 1.973
156 1 1 -1.098 -11.504 0.0 1.973
157 1 2 2.196 -9.616 0.0 2.372
158 1 1 -1.098 -9.431 1.876 2.77
159 1 1 -1.098 -9.616 0.0 4.345
160 1 2 2.196 -9.431 1.876 4.743
161 1 1 -1.098 -7.579 1.508 5.141
162 1 1 -1.098 -11.273 2.242 5.141
163 1 1 -1.098 -9.431 1.876 6.716
164 1 2 2.196 -7.579 1.508 7.114
165 1 2 2.196 -11.282 2.244 7.114
166 1 1 -1.098 -7.728 0.0 7.513
167 1 1 -1.098 -11.504 0.0 7.513
168 1 1 -1.098 -7.579 1.508 9.088
169 1 1 -1.098 -11.282 2.244 9.088
170 1 2 2.196 -7.728 0.0 9.486
171 1 2 2.196 -11.504 0.0 9.486
172 1 2 2.196 -7.139 -2.957 0.0
173 1 2 2.196 -10.628 -4.402 0.0
174 1 1 -1.098 -8.884 -3.68 0.398
175 1 1 -1.098 -7.139 -2.957 1.973
176 1 1 -1.098 -10.628 -4.402 1.973
177 1 2 2.196 -8.884 -3.68 2.372
178 1 1 -1.098 -9.431 -1.876 2.77
179 1 1 -1.098 -8.884 -3.68 4.345
180 1 2 2.196 -9.431 -1.876 4.743
181 1 1 -1.098 -7.579 -1.508 5.141
182 1 1 -1.098 -11.273 -2.242 5.141
183 1 1 -1.098 -9.431 -1.876 6.716
184 1 2 2.196 -7.579 -1.508 7.114
185 1 2 2.196 -11.282 -2.244 7.114
186 1 1 -1.098 -7.139 -2.957 7.513
187 1 1 -1.098 -10.628 -4.402 7.513
188 1 1 -1.098 -7.579 -1.508 9.088
189 1 1 -1.098 -11.282 -2.244 9.088
190 1 2 2.196 -7.139 -2.957 9.486
191 1 2 2.196 -10.628 -4.402 9.486
192 1 2 2.196 -5.464 -5.464 0.0
193 1 2 2.196 -8.134 -8.134 0.0
194 1 1 -1.098 -6.799 -6.799 0.398
195 1 1 -1.098 -5.464 -5.464 1.973
196 1 1 -1.098 -8.134 -8.134 1.973
197 1 2 2.196 -6.799 -6.799 2.372
198 1 1 -1.098 -7.995 -5.342 2.77
199 1 1 -1.098 -6.799 -6.799 4.345
200 1 2 2.196 -7.995 -5.342 4.743
201 1 1 -1.098 -6.425 -4.293 5.141
202 1 1 -1.098 -9.557 -6.385 5.141
203 1 1 -1.098 -7.995 -5.342 6.716
204 1 2 2.196 -6.425 -4.293 7.114
205 1 2 2.196 -9.565 -6.391 7.114
206 1 1 -1.098 -5.464 -5.464 7.513
207 1 1 -1.098 -8.134 -8.134 7.513
208 1 1 -1.098 -6.425 -4.293 9.088
209 1 1 -1.098 -9.565 -6.391 9.088
210 1 2 2.196 -5.464 -5.464 9.486
211 1 2 2.196 -8.134 -8.134 9.486
212 1 2 2.196 -2.957 -7.139 0.0
213 1 2 2.196 -4.402 -10.628 0.0
214 1 1 -1.098 -3.68 -8.884 0.398
215 1 1 -1.098 -2.957 -7.139 1.973
216 1 1 -1.098 -4.402 -10.628 1.973
217 1 2 2.196 -3.68 -8.884 2.372
218 1 1 -1.098 -5.342 -7.995 2.77
219 1 1 -1.098 -3.68 -8.884 4.345
220 1 2 2.196 -5.342 -7.995 4.743
221 1 1 -1.098 -4.293 -6.425 5.141
222 1 1 -1.098 -6.385 -9.557 5.141
223 1 1 -1.098 -5.342 -7.995 6.716
224 1 2 2.196 -4.293 -6.425 7.114
225 1 2 2.196 -6.391 -9.565 7.114
226 1 1 -1.098 -2.957 -7.139 7.513
227 1 1 -1.098 -4.402 -10.628 7.513
228 1 1 -1.098 -4.293 -6.425 9.088
229 1 1 -1.098 -6.391 -9.565 9.088
230 1 2 2.196 -2.957 -7.139 9.486
231 1 2 2.196 -4.402 -10.628 9.486
232 1 2 2.196 0.0 -7.728 0.0
233 1 2 2.196 0.0 -11.504 0.0
234 1 1 -1.098 0.0 -9.616 0.398
235 1 1 -1.098 0.0 -7.728 1.973
236 1 1 -1.098 0.0 -11.504 1.973
237 1 2 2.196 0.0 -9.616 2.372
238 1 1 -1.098 -1.876 -9.431 2.77
239 1 1 -1.098 0.0 -9.616 4.345
240 1 2 2.196 -1.876 -9.431 4.743
241 1 1 -1.098 -1.508 -7.579 5.141
242 1 1 -1.098 -2.242 -11.273 5.141
243 1 1 -1.098 -1.876 -9.431 6.716
244 1 2 2.196 -1.508 -7.579 7.114
245 1 2 2.196 -2.244 -11.282 7.114
246 1 1 -1.098 0.0 -7.728 7.513
247 1 1 -1.098 0.0 -11.504 7.513
248 1 1 -1.098 -1.508 -7.579 9.088
249 1 1 -1.098 -2.244 -11.282 9.088
250 1 2 2.196 0.0 -7.728 9.486
251 1 2 2.196 0.0 -11.504 9.486
252 1 2 2.196 2.957 -7.139 0.0
253 1 2 2.196 4.402 -10.628 0.0
254 1 1 -1.098 3.68 -8.884 0.398
255 1 1 -1.098 2.957 -7.139 1.973
256 1 1 -1.098 4.402 -10.628 1.973
257 1 2 2.196 3.68 -8.884 2.372
258 1 1 -1.098 1.876 -9.431 2.77
259 1 1 -1.098 3.68 -8.884 4.345
260 1 2 2.196 1.876 -9.431 4.743
261 1 1 -1.098 1.508 -7.579 5.141
262 1 1 -1.098 2.242 -11.273 5.141
263 1 1 -1.098 1.876 -9.431 6.716
264 1 2 2.196 1.508 -7.579 7.114
265 1 2 2.196 2.244 -11.282 7.114
266 1 1 -1.098 2.957 -7.139 7.513
267 1 1 -1.098 4.402 -10.628 7.513
268 1 1 -1.098 1.508 -7.579 9.088
269 1 1 -1.098 2.244 -11.282 9.088
270 1 2 2.196 2.957 -7.139 9.486
271 1 2 2.196 4.402 -10.628 9.486
272 1 2 2.196 5.464 -5.464 0.0
273 1 2 2.196 8.134 -8.134 0.0
274 1 1 -1.098 6.799 -6.799 0.398
275 1 1 -1.098 5.464 -5.464 1.973
276 1 1 -1.098 8.134 -8.134 1.973
277 1 2 2.196 6.799 -6.799 2.372
278 1 1 -1.098 5.342 -7.995 2.77
279 1 1 -1.098 6.799 -6.799 4.345
280 1 2 2.196 5.342 -7.995 4.743
281 1 1 -1.098 4.293 -6.425 5.141
282 1 1 -1.098 6.385 -9.557 5.141
283 1 1 -1.098 5.342 -7.995 6.716
284 1 2 2.196 4.293 -6.425 7.114
285 1 2 2.196 6.391 -9.565 7.114
286 1 1 -1.098 5.464 -5.464 7.513
287 1 1 -1.098 8.134 -8.134 7.513
288 1 1 -1.098 4.293 -6.425 9.088
289 1 1 -1.098 6.391 -9.565 9.088
290 1 2 2.196 5.464 -5.464 9.486
291 1 2 2.196 8.134 -8.134 9.486
292 1 2 2.196 7.139 -2.957 0.0
293 1 2 2.196 10.628 -4.402 0.0
294 1 1 -1.098 8.884 -3.68 0.398
295 1 1 -1.098 7.139 -2.957 1.973
296 1 1 -1.098 10.628 -4.402 1.973
297 1 2 2.196 8.884 -3.68 2.372
298 1 1 -1.098 7.995 -5.342 2.77
299 1 1 -1.098 8.884 -3.68 4.345
300 1 2 2.196 7.995 -5.342 4.743
301 1 1 -1.098 6.425 -4.293 5.141
302 1 1 -1.098 9.557 -6.385 5.141
303 1 1 -1.098 7.995 -5.342 6.716
304 1 2 2.196 6.425 -4.293 7.114
305 1 2 2.196 9.565 -6.391 7.114
306 1 1 -1.098 7.139 -2.957 7.513
307 1 1 -1.098 10.628 -4.402 7.513
308 1 1 -1.098 6.425 -4.293 9.088
309 1 1 -1.098 9.565 -6.391 9.088
310 1 2 2.196 7.139 -2.957 9.486
311 1 2 2.196 10.628 -4.402 9.486
312 1 1 -1.098 9.431 -1.876 2.77
313 1 2 2.196 9.431 -1.876 4.743
314 1 1 -1.098 7.579 -1.508 5.141
315 1 1 -1.098 11.273 -2.242 5.141
316 1 1 -1.098 9.431 -1.876 6.716
317 1 2 2.196 7.579 -1.508 7.114
318 1 2 2.196 11.282 -2.244 7.114
319 1 1 -1.098 7.579 -1.508 9.088
320 1 1 -1.098 11.282 -2.244 9.088
321 1 1 -1.098 9.616 0.0 9.884
322 1 1 -1.098 8.884 3.68 9.884
323 1 1 -1.098 7.728 0.0 11.459
324 1 1 -1.098 7.139 2.957 11.459
325 1 1 -1.098 11.504 0.0 11.459
326 1 1 -1.098 10.628 4.402 11.459
327 1 2 2.196 9.616 0.0 11.858
328 1 2 2.196 8.884 3.68 11.858
329 1 1 -1.098 9.431 1.876 12.256
330 1 1 -1.098 9.616 0.0 13.831
331 1 1 -1.098 8.884 3.68 13.831
332 1 2 2.196 9.431 1.876 14.229
333 1 1 -1.098 7.579 1.508 14.627
334 1 1 -1.098 11.273 2.242 14.627
335 1 1 -1.098 9.431 1.876 16.202
336 1 2 2.196 7.579 1.508 16.601
337 1 2 2.196 11.282 2.244 16.601
338 1 1 -1.098 7.728 0.0 16.999
339 1 1 -1.098 7.139 2.957 16.999
340 1 1 -1.098 11.504 0.0 16.999
341 1 1 -1.098 10.628 4.402 16.999
342 1 1 -1.098 7.579 1.508 18.574
343 1 1 -1.098 11.282 2.244 18.574
344 1 2 2.196 7.728 0.0 18.972
345 1 2 2.196 7.139 2.957 18.972
346 1 2 2.196 11.504 0.0 18.972
347 1 2 2.196 10.628 4.402 18.972
348 1 1 -1.098 6.799 6.799 9.884
349 1 1 -1.098 5.464 5.464 11.459
350 1 1 -1.098 8.134 8.134 11.459
351 1 2 2.196 6.799 6.799 11.858
352 1 1 -1.098 7.995 5.342 12.256
353 1 1 -1.098 6.799 6.799 13.831
354 1 2 2.196 7.995 5.342 14.229
355 1 1 -1.098 6.425 4.293 14.627
356 1 1 -1.098 9.557 6.385 14.627
357 1 1 -1.098 7.995 5.342 16.202
358 1 2 2.196 6.425 4.293 16.601
359 1 2 2.196 9.565 6.391 16.601
360 1 1 -1.098 5.464 5.464 16.999
361 1 1 -1.098 8.134 8.134 16.999
362 1 1 -1.098 6.425 4.293 18.574
363 1 1 -1.098 9.565 6.391 18.574
364 1 2 2.196 5.464 5.464 18.972
365 1 2 2.196 8.134 8.134 18.972
366 1 1 -1.098 3.68 8.884 9.884
367 1 1 -1.098 2.957 7.139 11.459
368 1 1 -1.098 4.402 10.628 11.459
369 1 2 2.196 3.68 8.884 11.858
370 1 1 -1.098 5.342 7.995 12.256
371 1 1 -1.098 3.68 8.884 13.831
372 1 2 2.196 5.342 7.995 14.229
373 1 1 -1.098 4.293 6.425 14.627
374 1 1 -1.098 6.385 9.557 14.627
375 1 1 -1.098 5.342 7.995 16.202
376 1 2 2.196 4.293 6.425 16.601
377 1 2 2.196 6.391 9.565 16.601
378 1 1 -1.098 2.957 7.139 16.999
379 1 1 -1.098 4.402 10.628 16.999
380 1 1 -1.098 4.293 6.425 18.574
381 1 1 -1.098 6.391 9.565 18.574
382 1 2 2.196 2.957 7.139 18.972
383 1 2 2.196 4.402 10.628 18.972
384 1 1 -1.098 0.0 9.616 9.884
385 1 1 -1.098 0.0 7.728 11.459
386 1 1 -1.098 0.0 11.504 11.459
387 1 2 2.196 0.0 9.616 11.858
388 1 1 -1.098 1.876 9.431 12.256
389 1 1 -1.098 0.0 9.616 13.831
390 1 2 2.196 1.876 9.431 14.229
391 1 1 -1.098 1.508 7.579 14.627
392 1 1 -1.098 2.242 11.273 14.627
393 1 1 -1.098 1.876 9.431 16.202
394 1 2 2.196 1.508 7.579 16.601
395 1 2 2.196 2.244 11.282 16.601
396 1 1 -1.098 0.0 7.728 16.999
397 1 1 -1.098 0.0 11.504 16.999
398 1 1 -1.098 1.508 7.579 18.574
399 1 1 -1.098 2.244 11.282 18.574
400 1 2 2.196 0.0 7.728 18.972
401 1 2 2.196 0.0 11.504 18.972
402 1 1 -1.098 -3.68 8.884 9.884
403 1 1 -1.098 -2.957 7.139 11.459
404 1 1 -1.098 -4.402 10.628 11.459
405 1 2 2.196 -3.68 8.884 11.858
406 1 1 -1.098 -1.876 9.431 12.256
407 1 1 -1.098 -3.68 8.884 13.831
408 1 2 2.196 -1.876 9.431 14.229
409 1 1 -1.098 -1.508 7.579 14.627
410 1 1 -1.098 -2.242 11.273 14.627
411 1 1 -1.098 -1.876 9.431 16.202
412 1 2 2.196 -1.508 7.579 16.601
413 1 2 2.196 -2.244 11.282 16.601
414 1 1 -1.098 -2.957 7.139 16.999
415 1 1 -1.098 -4.402 10.628 16.999
416 1 1 -1.098 -1.508 7.579 18.574
417 1 1 -1.098 -2.244 11.282 18.574
418 1 2 2.196 -2.957 7.139 18.972
419 1 2 2.196 -4.402 10.628 18.972
420 1 1 -1.098 -6.799 6.799 9.884
421 1 1 -1.098 -5.464 5.464 11.459
422 1 1 -1.098 -8.134 8.134 11.459
423 1 2 2.196 -6.799 6.799 11.858
424 1 1 -1.098 -5.342 7.995 12.256
425 1 1 -1.098 -6.799 6.799 13.831
426 1 2 2.196 -5.342 7.995 14.229
427 1 1 -1.098 -4.293 6.425 14.627
428 1 1 -1.098 -6.385 9.557 14.627
429 1 1 -1.098 -5.342 7.995 16.202
430 1 2 2.196 -4.293 6.425 16.601
431 1 2 2.196 -6.391 9.565 16.601
432 1 1 -1.098 -5.464 5.464 16.999
433 1 1 -1.098 -8.134 8.134 16.999
434 1 1 -1.098 -4.293 6.425 18.574
435 1 1 -1.098 -6.391 9.565 18.574
436 1 2 2.196 -5.464 5.464 18.972
437 1 2 2.196 -8.134 8.134 18.972
438 1 1 -1.098 -8.884 3.68 9.884
439 1 1 -1.098 -7.139 2.957 11.459
440 1 1 -1.098 -10.628 4.402 11.459
441 1 2 2.196 -8.884 3.68 11.858
442 1 1 -1.098 -7.995 5.342 12.256
443 1 1 -1.098 -8.884 3.68 13.831
444 1 2 2.196 -7.995 5.342 14.229
445 1 1 -1.098 -6.425 4.293 14.627
446 1 1 -1.098 -9.557 6.385 14.627
447 1 1 -1.098 -7.995 5.342 16.202
448 1 2 2.196 -6.425 4.293 16.601
449 1 2 2.196 -9.565 6.391 16.601
450 1 1 -1.098 -7.139 2.957 16.999
451 1 1 -1.098 -10.628 4.402 16.999
452 1 1 -1.098 -6.425 4.293 18.574
453 1 1 -1.098 -9.565 6.391 18.574
454 1 2 2.196 -7.139 2.957 18.972
455 1 2 2.196 -10.628 4.402 18.972
456 1 1 -1.098 -9.616 0.0 9.884
457 1 1 -1.098 -7.728 0.0 11.459
458 1 1 -1.098 -11.504 0.0 11.459
459 1 2 2.196 -9.616 0.0 11.858
460 1 1 -1.098 -9.431 1.876 12.256
461 1 1 -1.098 -9.616 0.0 13.831
462 1 2 2.196 -9.431 1.876 14.229
463 1 1 -1.098 -7.579 1.508 14.627
464 1 1 -1.098 -11.273 2.242 14.627
465 1 1 -1.098 -9.431 1.876 16.202
466 1 2 2.196 -7.579 1.508 16.601
467 1 2 2.196 -11.282 2.244 16.601
468 1 1 -1.098 -7.728 0.0 16.999
469 1 1 -1.098 -11.504 0.0 16.999
470 1 1 -1.098 -7.579 1.508 18.574
471 1 1 -1.098 -11.282 2.244 18.574
472 1 2 2.196 -7.728 0.0 18.972
473 1 2 2.196 -11.504 0.0 18.972
474 1 1 -1.098 -8.884 -3.68 9.884
475 1 1 -1.098 -7.139 -2.957 11.459
476 1 1 -1.098 -10.628 -4.402 11.459
477 1 2 2.196 -8.884 -3.68 11.858
478 1 1 -1.098 -9.431 -1.876 12.256
479 1 1 -1.098 -8.884 -3.68 13.831
480 1 2 2.196 -9.431 -1.876 14.229
481 1 1 -1.098 -7.579 -1.508 14.627
482 1 1 -1.098 -11.273 -2.242 14.627
483 1 1 -1.098 -9.431 -1.876 16.202
484 1 2 2.196 -7.579 -1.508 16.601
485 1 2 2.196 -11.282 -2.244 16.601
486 1 1 -1.098 -7.139 -2.957 16.999
487 1 1 -1.098 -10.628 -4.402 16.999
488 1 1 -1.098 -7.579 -1.508 18.574
489 1 1 -1.098 -11.282 -2.244 18.574
490 1 2 2.196 -7.139 -2.957 18.972
491 1 2 2.196 -10.628 -4.402 18.972
492 1 1 -1.098 -6.799 -6.799 9.884
493 1 1 -1.098 -5.464 -5.464 11.459
494 1 1 -1.098 -8.134 -8.134 11.459
495 1 2 2.196 -6.799 -6.799 11.858
496 1 1 -1.098 -7.995 -5.342 12.256
497 1 1 -1.098 -6.799 -6.799 13.831
498 1 2 2.196 -7.995 -5.342 14.229
499 1 1 -1.098 -6.425 -4.293 14.627
500 1 1 -1.098 -9.557 -6.385 14.627
501 1 1 -1.098 -7.995 -5.342 16.202
502 1 2 2.196 -6.425 -4.293 16.601
503 1 2 2.196 -9.565 -6.391 16.601
504 1 1 -1.098 -5.464 -5.464 16.999
505 1 1 -1.098 -8.134 -8.134 16.999
506 1 1 -1.098 -6.425 -4.293 18.574
507 1 1 -1.098 -9.565 -6.391 18.574
508 1 2 2.196 -5.464 -5.464 18.972
509 1 2 2.196 -8.134 -8.134 18.972
510 1 1 -1.098 -3.68 -8.884 9.884
511 1 1 -1.098 -2.957 -7.139 11.459
512 1 1 -1.098 -4.402 -10.628 11.459
513 1 2 2.196 -3.68 -8.884 11.858
514 1 1 -1.098 -5.342 -7.995 12.256
515 1 1 -1.098 -3.68 -8.884 13.831
516 1 2 2.196 -5.342 -7.995 14.229
517 1 1 -1.098 -4.293 -6.425 14.627
518 1 1 -1.098 -6.385 -9.557 14.627
519 1 1 -1.098 -5.342 -7.995 16.202
520 1 2 2.196 -4.293 -6.425 16.601
521 1 2 2.196 -6.391 -9.565 16.601
522 1 1 -1.098 -2.957 -7.139 16.999
523 1 1 -1.098 -4.402 -10.628 16.999
524 1 1 -1.098 -4.293 -6.425 18.574
525 1 1 -1.098 -6.391 -9.565 18.574
526 1 2 2.196 -2.957 -7.139 18.972
527 1 2 2.196 -4.402 -10.628 18.972
528 1 1 -1.098 0.0 -9.616 9.884
529 1 1 -1.098 0.0 -7.728 11.459
530 1 1 -1.098 0.0 -11.504 11.459
531 1 2 2.196 0.0 -9.616 11.858
532 1 1 -1.098 -1.876 -9.431 12.256
533 1 1 -1.098 0.0 -9.616 13.831
534 1 2 2.196 -1.876 -9.431 14.229
535 1 1 -1.098 -1.508 -7.579 14.627
536 1 1 -1.098 -2.242 -11.273 14.627
537 1 1 -1.098 -1.876 -9.431 16.202
538 1 2 2.196 -1.508 -7.579 16.601
539 1 2 2.196 -2.244 -11.282 16.601
540 1 1 -1.098 0.0 -7.728 16.999
541 1 1 -1.098 0.0 -11.504 16.999
542 1 1 -1.098 -1.508 -7.579 18.574
543 1 1 -1.098 -2.244 -11.282 18.574
544 1 2 2.196 0.0 -7.728 18.972
545 1 2 2.196 0.0 -11.504 18.972
546 1 1 -1.098 3.68 -8.884 9.884
547 1 1 -1.098 2.957 -7.139 11.459
548 1 1 -1.098 4.402 -10.628 11.459
549 1 2 2.196 3.68 -8.884 11.858
550 1 1 -1.098 1.876 -9.431 12.256
551 1 1 -1.098 3.68 -8.884 13.831
552 1 2 2.196 1.876 -9.431 14.229
553 1 1 -1.098 1.508 -7.579 14.627
554 1 1 -1.098 2.242 -11.273 14.627
555 1 1 -1.098 1.876 -9.431 16.202
556 1 2 2.196 1.508 -7.579 16.601
557 1 2 2.196 2.244 -11.282 16.601
558 1 1 -1.098 2.957 -7.139 16.999
559 1 1 -1.098 4.402 -10.628 16.999
560 1 1 -1.098 1.508 -7.579 18.574
561 1 1 -1.098 2.244 -11.282 18.574
562 1 2 2.196 2.957 -7.139 18.972
563 1 2 2.196 4.402 -10.628 18.972
564 1 1 -1.098 6.799 -6.799 9.884
565 1 1 -1.098 5.464 -5.464 11.459
566 1 1 -1.098 8.134 -8.134 11.459
567 1 2 2.196 6.799 -6.799 11.858
568 1 1 -1.098 5.342 -7.995 12.256
569 1 1 -1.098 6.799 -6.799 13.831
570 1 2 2.196 5.342 -7.995 14.229
571 1 1 -1.098 4.293 -6.425 14.627
572 1 1 -1.098 6.385 -9.557 14.627
573 1 1 -1.098 5.342 -7.995 16.202
574 1 2 2.196 4.293 -6.425 16.601
575 1 2 2.196 6.391 -9.565 16.601
576 1 1 -1.098 5.464 -5.464 16.999
577 1 1 -1.098 8.134 -8.134 16.999
578 1 1 -1.098 4.293 -6.425 18.574
579 1 1 -1.098 6.391 -9.565 18.574
580 1 2 2.196 5.464 -5.464 18.972
581 1 2 2.196 8.134 -8.134 18.972
582 1 1 -1.098 8.884 -3.68 9.884
583 1 1 -1.098 7.139 -2.957 11.459
584 1 1 -1.098 10.628 -4.402 11.459
585 1 2 2.196 8.884 -3.68 11.858
586 1 1 -1.098 7.995 -5.342 12.256
587 1 1 -1.098 8.884 -3.68 13.831
588 1 2 2.196 7.995 -5.342 14.229
589 1 1 -1.098 6.425 -4.293 14.627
590 1 1 -1.098 9.557 -6.385 14.627
591 1 1 -1.098 7.995 -5.342 16.202
592 1 2 2.196 6.425 -4.293 16.601
593 1 2 2.196 9.565 -6.391 16.601
594 1 1 -1.098 7.139 -2.957 16.999
595 1 1 -1.098 10.628 -4.402 16.999
596 1 1 -1.098 6.425 -4.293 18.574
597 1 1 -1.098 9.565 -6.391 18.574
598 1 2 2.196 7.139 -2.957 18.972
599 1 2 2.196 10.628 -4.402 18.972
600 1 1 -1.098 9.431 -1.876 12.256
601 1 2 2.196 9.431 -1.876 14.229
602 1 1 -1.098 7.579 -1.508 14.627
603 1 1 -1.098 11.273 -2.242 14.627
604 1 1 -1.098 9.431 -1.876 16.202
605 1 2 2.196 7.579 -1.508 16.601
606 1 2 2.196 11.282 -2.244 16.601
607 1 1 -1.098 7.579 -1.508 18.574
608 1 1 -1.098 11.282 -2.244 18.574
609 1 1 -1.098 9.616 0.0 19.37
610 1 1 -1.098 8.884 3.68 19.37
611 1 1 -1.098 7.728 0.0 20.945
612 1 1 -1.098 7.139 2.957 20.945
613 1 1 -1.098 11.504 0.0 20.945
614 1 1 -1.098 10.628 4.402 20.945
615 1 2 2.196 9.616 0.0 21.344
616 1 2 2.196 8.884 3.68 21.344
617 1 1 -1.098 9.431 1.876 21.742
618 1 1 -1.098 9.616 0.0 23.317
619 1 1 -1.098 8.884 3.68 23.317
620 1 2 2.196 9.431 1.876 23.715
621 1 1 -1.098 7.579 1.508 24.113
622 1 1 -1.098 11.273 2.242 24.113
623 1 1 -1.098 9.431 1.876 25.688
624 1 2 2.196 7.579 1.508 26.087
625 1 2 2.196 11.282 2.244 26.087
626 1 1 -1.098 7.728 0.0 26.485
627 1 1 -1.098 7.139 2.957 26.485
628 1 1 -1.098 11.504 0.0 26.485
629 1 1 -1.098 10.628 4.402 26.485
630 1 1 -1.098 7.579 1.508 28.06
631 1 1 -1.098 11.282 2.244 28.06
632 1 2 2.196 7.728 0.0 28.458
633 1 2 2.196 7.139 2.957 28.458
634 1 2 2.196 11.504 0.0 28.458
635 1 2 2.196 10.628 4.402 28.458
636 1 1 -1.098 6.799 6.799 19.37
637 1 1 -1.098 5.464 5.464 20.945
638 1 1 -1.098 8.134 8.134 20.945
639 1 2 2.196 6.799 6.799 21.344
640 1 1 -1.098 7.995 5.342 21.742
641 1 1 -1.098 6.799 6.799 23.317
642 1 2 2.196 7.995 5.342 23.715
643 1 1 -1.098 6.425 4.293 24.113
644 1 1 -1.098 9.557 6.385 24.113
645 1 1 -1.098 7.995 5.342 25.688
646 1 2 2.196 6.425 4.293 26.087
647 1 2 2.196 9.565 6.391 26.087
648 1 1 -1.098 5.464 5.464 26.485
649 1 1 -1.098 8.134 8.134 26.485
650 1 1 -1.098 6.425 4.293 28.06
651 1 1 -1.098 9.565 6.391 28.06
652 1 2 2.196 5.464 5.464 28.458
653 1 2 2.196 8.134 8.134 28.458
654 1 1 -1.098 3.68 8.884 19.37
655 1 1 -1.098 2.957 7.139 20.945
656 1 1 -1.098 4.402 10.628 20.945
657 1 2 2.196 3.68 8.884 21.344
658 1 1 -1.098 5.342 7.995 21.742
659 1 1 -1.098 3.68 8.884 23.317
660 1 2 2.196 5.342 7.995 23.715
661 1 1 -1.098 4.293 6.425 24.113
662 1 1 -1.098 6.385 9.557 24.113
663 1 1 -1.098 5.342 7.995 25.688
664 1 2 2.196 4.293 6.425 26.087
665 1 2 2.196 6.391 9.565 26.087
666 1 1 -1.098 2.957 7.139 26.485
667 1 1 -1.098 4.402 10.628 26.485
668 1 1 -1.098 4.293 6.425 28.06
669 1 1 -1.098 6.391 9.565 28.06
670 1 2 2.196 2.957 7.139 28.458
671 1 2 2.196 4.402 10.628 28.458
672 1 1 -1.098 0.0 9.616 19.37
673 1 1 -1.098 0.0 7.728 20.945
674 1 1 -1.098 0.0 11.504 20.945
675 1 2 2.196 0.0 9.616 21.344
676 1 1 -1.098 1.876 9.431 21.742
677 1 1 -1.098 0.0 9.616 23.317
678 1 2 2.196 1.876 9.431 23.715
679 1 1 -1.098 1.508 7.579 24.113
680 1 1 -1.098 2.242 11.273 24.113
681 1 1 -1.098 1.876 9.431 25.688
682 1 2 2.196 1.508 7.579 26.087
683 1 2 2.196 2.244 11.282 26.087
684 1 1 -1.098 0.0 7.728 26.485
685 1 1 -1.098 0.0 11.504 26.485
686 1 1 -1.098 1.508 7.579 28.06
687 1 1 -1.098 2.244 11.282 28.06
688 1 2 2.196 0.0 7.728 28.458
689 1 2 2.196 0.0 11.504 28.458
690 1 1 -1.098 -3.68 8.884 19.37
691 1 1 -1.098 -2.957 7.139 20.945
692 1 1 -1.098 -4.402 10.628 20.945
693 1 2 2.196 -3.68 8.884 21.344
694 1 1 -1.098 -1.876 9.431 21.742
695 1 1 -1.098 -3.68 8.884 23.317
696 1 2 2.196 -1.876 9.431 23.715
697 1 1 -1.098 -1.508 7.579 24.113
698 1 1 -1.098 -2.242 11.273 24.113
699 1 1 -1.098 -1.876 9.431 25.688
700 1 2 2.196 -1.508 7.579 26.087
701 1 2 2.196 -2.244 11.282 26.087
702 1 1 -1.098 -2.957 7.139 26.485
703 1 1 -1.098 -4.402 10.628 26.485
704 1 1 -1.098 -1.508 7.579 28.06
705 1 1 -1.098 -2.244 11.282 28.06
706 1 2 2.196 -2.957 7.139 28.458
707 1 2 2.196 -4.402 10.628 28.458
708 1 1 -1.098 -6.799 6.799 19.37
709 1 1 -1.098 -5.464 5.464 20.945
710 1 1 -1.098 -8.134 8.134 20.945
711 1 2 2.196 -6.799 6.799 21.344
712 1 1 -1.098 -5.342 7.995 21.742
713 1 1 -1.098 -6.799 6.799 23.317
714 1 2 2.196 -5.342 7.995 23.715
715 1 1 -1.098 -4.293 6.425 24.113
716 1 1 -1.098 -6.385 9.557 24.113
717 1 1 -1.098 -5.342 7.995 25.688
718 1 2 2.196 -4.293 6.425 26.087
719 1 2 2.196 -6.391 9.565 26.087
720 1 1 -1.098 -5.464 5.464 26.485
721 1 1 -1.098 -8.134 8.134 26.485
722 1 1 -1.098 -4.293 6.425 28.06
723 1 1 -1.098 -6.391 9.565 28.06
724 1 2 2.196 -5.464 5.464 28.458
725 1 2 2.196 -8.134 8.134 28.458
726 1 1 -1.098 -8.884 3.68 19.37
727 1 1 -1.098 -7.139 2.957 20.945
728 1 1 -1.098 -10.628 4.402 20.945
729 1 2 2.196 -8.884 3.68 21.344
730 1 1 -1.098 -7.995 5.342 21.742
731 1 1 -1.098 -8.884 3.68 23.317
732 1 2 2.196 -7.995 5.342 23.715
733 1 1 -1.098 -6.425 4.293 24.113
734 1 1 -1.098 -9.557 6.385 24.113
735 1 1 -1.098 -7.995 5.342 25.688
736 1 2 2.196 -6.425 4.293 26.087
737 1 2 2.196 -9.565 6.391 26.087
738 1 1 -1.098 -7.139 2.957 26.485
739 1 1 -1.098 -10.628 4.402 26.485
740 1 1 -1.098 -6.425 4.293 28.06
741 1 1 -1.098 -9.565 6.391 28.06
742 1 2 2.196 -7.139 2.957 28.458
743 1 2 2.196 -10.628 4.402 28.458
744 1 1 -1.098 -9.616 0.0 19.37
745 1 1 -1.098 -7.728 0.0 20.945
746 1 1 -1.098 -11.504 0.0 20.945
747 1 2 2.196 -9.616 0.0 21.344
748 1 1 -1.098 -9.431 1.876 21.742
749 1 1 -1.098 -9.616 0.0 23.317
750 1 2 2.196 -9.431 1.876 23.715
751 1 1 -1.098 -7.579 1.508 24.113
752 1 1 -1.098 -11.273 2.242 24.113
753 1 1 -1.098 -9.431 1.876 25.688
754 1 2 2.196 -7.579 1.508 26.087
755 1 2 2.196 -11.282 2.244 26.087
756 1 1 -1.098 -7.728 0.0 26.485
757 1 1 -1.098 -11.504 0.0 26.485
758 1 1 -1.098 -7.579 1.508 28.06
759 1 1 -1.098 -11.282 2.244 28.06
760 1 2 2.196 -7.728 0.0 28.458
761 1 2 2.196 -11.504 0.0 28.458
762 1 1 -1.098 -8.884 -3.68 19.37
763 1 1 -1.098 -7.139 -2.957 20.945
764 1 1 -1.098 -10.628 -4.402 20.945
765 1 2 2.196 -8.884 -3.68 21.344
766 1 1 -1.098 -9.431 -1.876 21.742
767 1 1 -1.098 -8.884 -3.68 23.317
768 1 2 2.196 -9.431 -1.876 23.715
769 1 1 -1.098 -7.579 -1.508 24.113
770 1 1 -1.098 -11.273 -2.242 24.113
771 1 1 -1.098 -9.431 -1.876 25.688
772 1 2 2.196 -7.579 -1.508 26.087
773 1 2 2.196 -11.282 -2.244 26.087
774 1 1 -1.098 -7.139 -2.957 26.485
775 1 1 -1.098 -10.628 -4.402 26.485
776 1 1 -1.098 -7.579 -1.508 28.06
777 1 1 -1.098 -11.282 -2.244 28.06
778 1 2 2.196 -7.139 -2.957 28.458
779 1 2 2.196 -10.628 -4.402 28.458
780 1 1 -1.098 -6.799 -6.799 19.37
781 1 1 -1.098 -5.464 -5.464 20.945
782 1 1 -1.098 -8.134 -8.134 20.945
783 1 2 2.196 -6.799 -6.799 21.344
784 1 1 -1.098 -7.995 -5.342 21.742
785 1 1 -1.098 -6.799 -6.799 23.317
786 1 2 2.196 -7.995 -5.342 23.715
787 1 1 -1.098 -6.425 -4.293 24.113
788 1 1 -1.098 -9.557 -6.385 24.113
789 1 1 -1.098 -7.995 -5.342 25.688
790 1 2 2.196 -6.425 -4.293 26.087
791 1 2 2.196 -9.565 -6.391 26.087
792 1 1 -1.098 -5.464 -5.464 26.485
793 1 1 -1.098 -8.134 -8.134 26.485
794 1 1 -1.098 -6.425 -4.293 28.06
795 1 1 -1.098 -9.565 -6.391 28.06
796 1 2 2.196 -5.464 -5.464 28.458
797 1 2 2.196 -8.134 -8.134 28.458
798 1 1 -1.098 -3.68 -8.884 19.37
799 1 1 -1.098 -2.957 -7.139 20.945
800 1 1 -1.098 -4.402 -10.628 20.945
801 1 2 2.196 -3.68 -8.884 21.344
802 1 1 -1.098 -5.342 -7.995 21.742
803 1 1 -1.098 -3.68 -8.884 23.317
804 1 2 2.196 -5.342 -7.995 23.715
805 1 1 -1.098 -4.293 -6.425 24.113
806 1 1 -1.098 -6.385 -9.557 24.113
807 1 1 -1.098 -5.342 -7.995 25.688
808 1 2 2.196 -4.293 -6.425 26.087
809 1 2 2.196 -6.391 -9.565 26.087
810 1 1 -1.098 -2.957 -7.139 26.485
811 1 1 -1.098 -4.402 -10.628 26.485
812 1 1 -1.098 -4.293 -6.425 28.06
813 1 1 -1.098 -6.391 -9.565 28.06
814 1 2 2.196 -2.957 -7.139 28.458
815 1 2 2.196 -4.402 -10.628 28.458
816 1 1 -1.098 0.0 -9.616 19.37
817 1 1 -1.098 0.0 -7.728 20.945
818 1 1 -1.098 0.0 -11.504 20.945
819 1 2 2.196 0.0 -9.616 21.344
820 1 1 -1.098 -1.876 -9.431 21.742
821 1 1 -1.098 0.0 -9.616 23.317
822 1 2 2.196 -1.876 -9.431 23.715
823 1 1 -1.098 -1.508 -7.579 24.113
824 1 1 -1.098 -2.242 -11.273 24.113
825 1 1 -1.098 -1.876 -9.431 25.688
826 1 2 2.196 -1.508 -7.579 26.087
827 1 2 2.196 -2.244 -11.282 26.087
828 1 1 -1.098 0.0 -7.728 26.485
829 1 1 -1.098 0.0 -11.504 26.485
830 1 1 -1.098 -1.508 -7.579 28.06
831 1 1 -1.098 -2.244 -11.282 28.06
832 1 2 2.196 0.0 -7.728 28.458
833 1 2 2.196 0.0 -11.504 28.458
834 1 1 -1.098 3.68 -8.884 19.37
835 1 1 -1.098 2.957 -7.139 20.945
836 1 1 -1.098 4.402 -10.628 20.945
837 1 2 2.196 3.68 -8.884 21.344
838 1 1 -1.098 1.876 -9.431 21.742
839 1 1 -1.098 3.68 -8.884 23.317
840 1 2 2.196 1.876 -9.431 23.715
841 1 1 -1.098 1.508 -7.579 24.113
842 1 1 -1.098 2.242 -11.273 24.113
843 1 1 -1.098 1.876 -9.431 25.688
844 1 2 2.196 1.508 -7.579 26.087
845 1 2 2.196 2.244 -11.282 26.087
846 1 1 -1.098 2.957 -7.139 26.485
847 1 1 -1.098 4.402 -10.628 26.485
848 1 1 -1.098 1.508 -7.579 28.06
849 1 1 -1.098 2.244 -11.282 28.06
850 1 2 2.196 2.957 -7.139 28.458
851 1 2 2.196 4.402 -10.628 28.458
852 1 1 -1.098 6.799 -6.799 19.37
853 1 1 -1.098 5.464 -5.464 20.945
854 1 1 -1.098 8.134 -8.134 20.945
855 1 2 2.196 6.799 -6.799 21.344
856 1 1 -1.098 5.342 -7.995 21.742