LAMMPS (5 Jun 2019)
# LAMMPS input script for thermal conductivity Green-Kubo method for TiO2 Anatase Nanotube

echo		both
units		metal
atom_style	full
boundary    p p p

read_data	50_10_Full.data
  orthogonal box = (-30 -30 0) to (30 30 47.43)
  2 by 4 by 2 MPI processor grid
  reading atoms ...
  1440 atoms
  0 = max # of 1-2 neighbors
  0 = max # of 1-3 neighbors
  0 = max # of 1-4 neighbors
  1 = max # of special neighbors
  special bonds CPU = 0.00106078 secs
  read_data CPU = 0.0163517 secs
velocity	all create 300 219387 mom yes rot yes dist uniform

pair_style buck/coul/long 8 8 ##or 12
pair_coeff 2 2   31120.53 0.154 5.249
pair_coeff 1 2   16957.71 0.194 12.587
pair_coeff 1 1   11782.88 0.234 30.214

kspace_style ewald 1.0e-2  #long-range solver (or pppm )
pair_modify 	shift yes
neigh_modify    delay 0 every 1 check yes

min_style	cg
minimize 	1.0e-6 1.0e-8 1000 10000
Ewald initialization ...
  using 12-bit tables for long-range coulomb (../kspace.cpp:319)
  G vector (1/distance) = 0.207325
  estimated absolute RMS force accuracy = 0.164601
  estimated relative force accuracy = 0.0114309
  KSpace vectors: actual max1d max3d = 722 7 1687
                  kxmax kymax kzmax  = 7 7 6
Neighbor list info ...
  update every 1 steps, delay 0 steps, check yes
  max neighbors/atom: 2000, page size: 100000
  master list distance cutoff = 10
  ghost atom cutoff = 10
  binsize = 5, bins = 12 12 10
  1 neighbor lists, perpetual/occasional/extra = 1 0 0
  (1) pair buck/coul/long, perpetual
      attributes: half, newton on
      pair build: half/bin/newton
      stencil: half/bin/3d/newton
      bin: standard
Per MPI rank memory allocation (min/avg/max) = 18.6 | 18.81 | 19.01 Mbytes
Step Temp E_pair E_mol TotEng Press 
       0          300    -17131.92            0   -17076.118     25814.13 
       5          300   -17761.766            0   -17705.964    20419.179 
Loop time of 0.346061 on 16 procs for 5 steps with 1440 atoms

70.6% CPU use with 16 MPI tasks x no OpenMP threads

Minimization stats:
  Stopping criterion = linesearch alpha is zero
  Energy initial, next-to-last, final = 
        -17131.9197638     -17761.7655988     -17761.7655988
  Force two-norm initial, final = 232.305 39.9147
  Force max component initial, final = 14.5645 1.85185
  Final line search alpha, max atom move = 5.94689e-12 1.10128e-11
  Iterations, force evaluations = 5 72

MPI task timing breakdown:
Section |  min time  |  avg time  |  max time  |%varavg| %total
---------------------------------------------------------------
Pair    | 3.4332e-05 | 0.057788   | 0.126      |  24.1 | 16.70
Bond    | 6.2045e-06 | 8.7416e-06 | 1.4145e-05 |   0.0 |  0.00
Kspace  | 0.18123    | 0.19216    | 0.21079    |   1.6 | 55.53
Neigh   | 0          | 0          | 0          |   0.0 |  0.00
Comm    | 0.0064889  | 0.088528   | 0.15318    |  19.2 | 25.58
Output  | 0          | 0          | 0          |   0.0 |  0.00
Modify  | 0          | 0          | 0          |   0.0 |  0.00
Other   |            | 0.007573   |            |       |  2.19

Nlocal:    90 ave 204 max 0 min
Histogram: 8 0 0 0 0 0 0 1 3 4
Nghost:    743.75 ave 1069 max 439 min
Histogram: 8 0 0 0 0 0 0 0 0 8
Neighs:    7098 ave 15139 max 0 min
Histogram: 8 0 0 0 0 0 0 0 2 6

Total # of neighbors = 113568
Ave neighs/atom = 78.8667
Ave special neighs/atom = 0
Neighbor list builds = 0
Dangerous builds = 0

region 	fl block  INF INF INF INF INF 5  units box
region          hot block INF INF INF INF 5 10   units box

region          1 block   INF INF INF INF 10 12.5    units box
region          2 block   INF INF INF INF 12.5 15    units box
region          3 block   INF INF INF INF 15 17.5   units box
region          4 block   INF INF INF INF 17.5 20  units box
region          5 block   INF INF INF INF 20 22.5  units box
region          6 block   INF INF INF INF 22.5 25   units box
region          7 block   INF INF INF INF 25 27.5  units box
region          8 block   INF INF INF INF 27.5 30  units box
region          9 block   INF INF INF INF 30 32.5  units box
region          10 block  INF INF INF INF 32.5 35  units box

region          cold block INF INF INF INF 35 40 units box
region          fr block   INF INF INF INF 40 INF units box

group 		fl   region fl
144 atoms in group fl
group 	      	fr   region fr
224 atoms in group fr
group           hot  region hot
192 atoms in group hot
group           cold region cold
176 atoms in group cold
group           middle subtract all hot cold fl fr
704 atoms in group middle

group           1 region 1
64 atoms in group 1
group           2 region 2
64 atoms in group 2
group           3 region 3
80 atoms in group 3
group           4 region 4
80 atoms in group 4
group           5 region 5
64 atoms in group 5
group           6 region 6
64 atoms in group 6
group           7 region 7
80 atoms in group 7
group           8 region 8
80 atoms in group 8
group           9 region 9
64 atoms in group 9
group           10 region 10
64 atoms in group 10

fix             npt all npt temp 300 300 0.1 iso 0 0 1 drag 0.5
thermo          1000 #1000
thermo_style    custom step temp pe ke etotal
dump            1 all atom 1000 dump.lammpstrj
timestep		0.001
run             1000000 #20000
Ewald initialization ...
  using 12-bit tables for long-range coulomb (../kspace.cpp:319)
  G vector (1/distance) = 0.207325
  estimated absolute RMS force accuracy = 0.164601
  estimated relative force accuracy = 0.0114309
  KSpace vectors: actual max1d max3d = 722 7 1687
                  kxmax kymax kzmax  = 7 7 6
Per MPI rank memory allocation (min/avg/max) = 17.48 | 17.68 | 17.89 Mbytes
Step Temp PotEng KinEng TotEng 
       5          300   -17761.766    55.801605   -17705.964 
    1000    391.75965   -18300.885    72.869391   -18228.016 
    2000      311.629    -18323.76    57.964661   -18265.795 
    3000    304.19319   -18327.093     56.58156   -18270.511 
    4000    298.12138   -18338.342    55.452171   -18282.889 
    5000    308.89528   -18338.925    57.456174   -18281.469 
    6000    302.82956   -18345.148    56.327918    -18288.82 
    7000    288.94551   -18340.815    53.745409   -18287.069 
    8000    299.87372   -18344.076    55.778116   -18288.298 
    9000    302.95781    -18343.33    56.351773   -18286.978 
   10000    290.07742   -18350.599    53.955952   -18296.643 
   11000    301.72603   -18344.916    56.122656   -18288.793 
   12000    299.85685    -18352.61    55.774978   -18296.835 
   13000    306.72453    -18352.19    57.052403   -18295.138 
   14000    314.38605   -18358.142    58.477487   -18299.664 
   15000    305.74548   -18356.787    56.870295   -18299.917 
   16000    291.96906   -18354.946    54.307807   -18300.638 
   17000    309.86572    -18354.57     57.63668   -18296.933 
   18000    304.01511   -18351.254    56.548436   -18294.705 
   19000     298.2992   -18359.448    55.485247   -18303.962 
   20000    299.46862    -18356.78    55.702766   -18301.077 
   21000    299.99192   -18363.161    55.800101   -18307.361 
   22000    304.44218   -18355.505    56.627874   -18298.877 
   23000    293.76808    -18359.43    54.642434   -18304.788 
   24000     293.8581   -18363.079    54.659179    -18308.42 
   25000     295.6317   -18362.805    54.989078   -18307.816 
   26000    301.66592   -18362.134    56.111475   -18306.022 
   27000    302.42306   -18363.571    56.252308   -18307.318 
   28000    290.71387    -18362.47    54.074335   -18308.396 
   29000     300.5489   -18364.065    55.903704   -18308.161 
   30000    297.96355   -18364.712    55.422814   -18309.289 
   31000    300.70464   -18362.383    55.932672    -18306.45 
   32000    301.98361   -18370.519    56.170567   -18314.348 
   33000    294.05973   -18368.302    54.696683   -18313.605 
   34000     303.0315   -18373.128    56.365479   -18316.763 
   35000    301.01126   -18379.895    55.989704   -18323.905 
   36000    307.72712   -18374.287     57.23889   -18317.048 
   37000    305.51656   -18375.402    56.827715   -18318.574 
   38000    293.39265   -18375.262    54.572602   -18320.689 
   39000    302.07322   -18378.477    56.187236    -18322.29 
   40000    304.56704   -18370.758    56.651098   -18314.107 
   41000    304.92873   -18380.512    56.718376   -18323.793 
   42000    286.55869    -18368.24    53.301449   -18314.938 
   43000     294.5582   -18381.674    54.789401   -18326.885 
   44000    306.77757   -18382.067    57.062268   -18325.005 
   45000    283.14582   -18379.131    52.666637   -18326.465 
   46000    300.25494   -18373.763    55.849024   -18317.914 
   47000    296.78759   -18382.482    55.204079   -18327.278 
   48000    305.53627   -18379.502     56.83138    -18322.67 
   49000    306.39755   -18380.681    56.991583    -18323.69 
   50000     299.0702   -18379.093    55.628658   -18323.464 
   51000    295.71957    -18379.41    55.005423   -18324.405 
   52000    299.11276   -18373.864    55.636573   -18318.227 
   53000    297.36885   -18379.674    55.312196   -18324.362 
   54000      302.433   -18379.139    56.254156   -18322.885 
   55000    304.63987   -18383.955    56.664646   -18327.291 
   56000    294.61093   -18374.587    54.799209   -18319.787 
   57000    306.69448   -18374.873    57.046814   -18317.826 
   58000    295.62774    -18377.08    54.988342   -18322.092 
   59000    298.37158    -18371.14    55.498711   -18315.641 
   60000    307.80392   -18377.383    57.253175    -18320.13 
   61000    299.93182   -18381.871    55.788923   -18326.082 
   62000    296.31079   -18378.509    55.115391   -18323.394 
   63000     300.0041   -18377.467    55.802367   -18321.665 
   64000    294.87324   -18379.029       54.848   -18324.181 
   65000    298.49258       -18379    55.521216   -18323.479 
   66000    292.59364   -18379.348    54.423982   -18324.924 
   67000    303.37115   -18382.845    56.428657   -18326.416 
   68000    292.91144   -18375.575    54.483095   -18321.092 
   69000    303.85516   -18377.403    56.518685   -18320.884 
   70000    306.72202   -18378.116    57.051937   -18321.064 
   71000    311.79122   -18381.808    57.994834   -18323.813 
   72000    301.76877   -18381.041    56.130604   -18324.911 
   73000    302.43563   -18383.766    56.254646   -18327.511 
   74000    297.29634   -18379.112    55.298709   -18323.813 
   75000    297.72896   -18382.771    55.379179   -18327.392 
   76000    307.30894   -18379.524    57.161107   -18322.363 
   77000    297.00213   -18375.135    55.243985   -18319.891 
   78000    302.52919   -18382.095    56.272048   -18325.823 
   79000    301.56423   -18381.095    56.092561   -18325.002 
   80000    301.99791    -18376.58    56.173227   -18320.406 
   81000    298.06579   -18376.279    55.441831   -18320.837 
   82000    302.95358   -18382.397    56.350987   -18326.046 
   83000    301.17655   -18379.051     56.02045   -18323.031 
   84000     304.9253    -18384.58    56.717737   -18327.862 
   85000     296.6342   -18374.209    55.175549   -18319.034 
   86000    297.67095   -18381.052     55.36839   -18325.684 
   87000     304.8815   -18378.535     56.70959   -18321.826 
   88000    304.33837   -18378.183    56.608564   -18321.575 
   89000    302.20312   -18377.331    56.211398   -18321.119 
   90000    299.33781   -18376.284    55.678434   -18320.605 
   91000    306.75307   -18372.916    57.057712   -18315.858 
   92000    298.10166   -18374.849    55.448503   -18319.401 
   93000    300.64337   -18380.678    55.921274   -18324.756 
   94000    302.09525   -18373.749    56.191332   -18317.558 
   95000    296.28157   -18367.395    55.109957   -18312.285 
   96000    301.21632   -18377.086    56.027847   -18321.058 
   97000    301.07059   -18379.134     56.00074   -18323.133 
   98000    300.77937   -18378.076    55.946572   -18322.129 
   99000     304.8394   -18379.369     56.70176   -18322.667 
  100000    294.22195   -18382.807    54.726857    -18328.08 
  101000     304.7673   -18381.323    56.688347   -18324.634 
  102000    293.18482   -18376.015    54.533945   -18321.481 
  103000    302.35744   -18378.823    56.240101   -18322.583 
  104000    297.66996   -18373.473    55.368204   -18318.104 
  105000    306.90261   -18380.734    57.085527   -18323.648 
  106000    301.33958    -18378.41    56.050774   -18322.359 
  107000    301.57093   -18374.657    56.093806   -18318.563 
  108000    304.76799   -18380.219    56.688476   -18323.531 
  109000    300.37756   -18377.902    55.871833    -18322.03 
  110000    306.46778    -18374.69    57.004647   -18317.686 
  111000    307.03455    -18374.46    57.110069    -18317.35 
  112000    298.66837   -18379.704    55.553915    -18324.15 
  113000    296.12669   -18385.505    55.081148   -18330.423 
  114000    302.86859   -18381.873    56.335178   -18325.538 
  115000    302.58825   -18384.088    56.283033   -18327.805 
  116000    296.62318   -18382.186    55.173498   -18327.012 
  117000    300.09412   -18385.024    55.819112   -18329.205 
  118000    298.46386   -18379.212    55.515874   -18323.696 
  119000    301.15864    -18380.86    56.017118   -18324.843 
  120000    296.97116   -18384.318    55.238224   -18329.079 
  121000    306.19933   -18381.669    56.954713   -18324.715 
  122000    294.92437   -18384.328     54.85751   -18329.471 
  123000    299.04245   -18375.311    55.623495   -18319.687 
  124000    297.30273   -18385.357    55.299898   -18330.057 
  125000    295.64581   -18377.268    54.991701   -18322.276 
  126000     303.1824   -18383.419    56.393547   -18327.025 
  127000    302.74012   -18382.026    56.311281   -18325.715 
  128000    294.25951   -18378.821    54.733843   -18324.088 
  129000    291.18122   -18380.082    54.161264   -18325.921 
  130000    300.83048   -18375.095    55.956078   -18319.139 
  131000    301.40339   -18385.672    56.062643    -18329.61 
  132000    292.53214   -18384.163    54.412543   -18329.751 
  133000    298.31033    -18379.93    55.487317   -18324.443 
  134000     292.0652   -18378.866     54.32569    -18324.54 
  135000    302.10251   -18375.838    56.192683   -18319.646 
  136000    303.40473   -18378.698    56.434903   -18322.263 
  137000    308.46291   -18382.859    57.375751   -18325.483 
  138000     304.4792   -18384.396     56.63476   -18327.761 
  139000     302.7518   -18380.898    56.313454   -18324.585 
  140000    290.50122   -18378.843    54.034781   -18324.808 
  141000    300.21412   -18378.367    55.841432   -18322.525 
  142000    289.42532   -18376.614    53.834658   -18322.779 
  143000    298.12962   -18380.963    55.453705   -18325.509 
  144000    303.36068   -18381.383    56.426708   -18324.957 
  145000    296.37215    -18378.73    55.126805   -18323.604 
  146000    302.40548   -18377.914    56.249037   -18321.665 
  147000    307.05251   -18381.244    57.113408   -18324.131 
  148000    299.97312   -18382.145    55.796605   -18326.348 
  149000    296.45227   -18378.997    55.141708   -18323.855 
  150000    298.51198   -18376.048    55.524825   -18320.523 
  151000    300.27589   -18381.041    55.852922   -18325.188 
  152000    304.63181   -18378.393    56.663147    -18321.73 
  153000    301.54821   -18379.287     56.08958   -18323.197 
  154000    295.80608   -18377.453    55.021512   -18322.431 
  155000    302.32493   -18380.045    56.234053   -18323.811 
  156000    302.78164   -18381.051    56.319005   -18324.732 
  157000    301.83797    -18383.81    56.143476   -18327.667 
  158000    302.69118   -18379.577    56.302179   -18323.275 
  159000    290.64809   -18378.853    54.062099   -18324.791 
  160000    305.10143   -18378.351    56.750497   -18321.601 
  161000    315.16374   -18381.657    58.622141   -18323.034 
  162000     290.5904   -18386.684    54.051369   -18332.633 
  163000    306.57603    -18376.75    57.024782   -18319.725 
  164000    311.11768   -18381.202    57.869552   -18323.332 
  165000    295.74588   -18380.711    55.010316     -18325.7 
  166000    307.29318   -18374.281    57.158176   -18317.123 
  167000    299.38941   -18376.552    55.688031   -18320.864 
  168000    306.15856   -18379.846    56.947129   -18322.899 
  169000     298.8917   -18376.939    55.595456   -18321.344 
  170000     302.1322   -18377.622    56.198205   -18321.424 
  171000    295.15725   -18383.925    54.900828   -18329.024 
  172000    297.72843   -18379.911    55.379081   -18324.532 
  173000    299.72442   -18375.623    55.750346   -18319.873 
  174000    293.73292   -18378.209    54.635894   -18323.573 
  175000    298.35579   -18377.221    55.495773   -18321.725 
  176000    309.01884   -18381.175    57.479157   -18323.696 
  177000    295.57537   -18374.159      54.9786    -18319.18 
  178000    305.57902   -18379.796    56.839332   -18322.957 
  179000     299.0126   -18387.067    55.617944   -18331.449 
  180000    303.71507   -18374.983    56.492628   -18318.491 
  181000    307.37655   -18381.134    57.173681    -18323.96 
  182000    289.00678   -18380.824    53.756807   -18327.067 
  183000    303.78376   -18381.984    56.505405   -18325.478 
  184000    305.16854   -18381.799     56.76298   -18325.036 
  185000    306.14124    -18388.28    56.943908   -18331.336 
  186000    304.23967   -18381.973    56.590207   -18325.383 
  187000    296.19448   -18374.922    55.093758   -18319.828 
  188000     302.7018   -18379.069    56.304153   -18322.764 
  189000    297.39393   -18379.601    55.316862   -18324.284 
  190000    298.98778   -18380.073    55.613326    -18324.46 
  191000    299.58477   -18381.332     55.72437   -18325.607 
  192000    300.48586   -18383.154    55.891978   -18327.262 
  193000    296.57891   -18388.497    55.165263   -18333.332 
  194000    310.18167   -18381.763    57.695449   -18324.068 
  195000    300.84053   -18385.552    55.957948   -18329.594 
  196000    301.09107   -18378.982     56.00455   -18322.977 
  197000    301.19733   -18378.248    56.024315   -18322.224 
  198000    303.41511   -18378.794    56.436834   -18322.358 
  199000    291.94531    -18381.89     54.30339   -18327.586 
  200000    291.24396   -18384.839    54.172934   -18330.666 
  201000    299.07974   -18380.742     55.63043   -18325.112 
  202000    289.36258    -18378.84    53.822987   -18325.017 
  203000    300.44693   -18375.972    55.884735   -18320.088 
  204000    304.75127   -18384.231    56.685367   -18327.546 
  205000    299.42713   -18375.207    55.695049   -18319.512 
  206000    299.99649    -18370.09    55.800953   -18314.289 
  207000    298.81171   -18379.537    55.580576   -18323.957 
  208000    292.63017   -18379.998    54.430778   -18325.567 
  209000    306.26318   -18380.962     56.96659   -18323.996 
  210000    302.83189    -18384.91     56.32835   -18328.582 
  211000    303.37389   -18383.458    56.429166   -18327.029 
  212000    298.59338   -18376.969    55.539965   -18321.429 
  213000    300.63303   -18378.636    55.919351   -18322.717 
  214000    300.21657    -18384.94    55.841888   -18329.099 
  215000    295.94237   -18379.096    55.046863    -18324.05 
  216000    301.27975   -18386.372    56.039645   -18330.333 
  217000    297.09303   -18384.475    55.260893   -18329.215 
  218000     294.1298   -18376.754    54.709715   -18322.045 
  219000      290.456   -18376.107     54.02637   -18322.081 
  220000    294.71227   -18380.278    54.818058    -18325.46 
  221000    307.44193   -18385.261    57.185843   -18328.075 
  222000    296.45105   -18381.147     55.14148   -18326.005 
  223000    292.79908    -18381.03    54.462196   -18326.567 
  224000    300.02106   -18377.589    55.805522   -18321.784 
  225000    301.03477   -18380.582    55.994077   -18324.588 
  226000    300.75941   -18380.827    55.942859   -18324.884 
  227000    304.21264   -18377.304    56.585178   -18320.719 
  228000    297.22162   -18384.693    55.284811   -18329.408 
  229000     294.2779   -18386.576    54.737264   -18331.838 
  230000     308.5039   -18385.282    57.383375   -18327.899 
  231000    303.20307    -18378.52    56.397393   -18322.123 
  232000    299.54716   -18382.541    55.717374   -18326.824 
  233000    301.40228   -18380.995    56.062435   -18324.933 
  234000    299.88651   -18378.323    55.780494   -18322.542 
  235000    298.54517   -18378.956    55.530999   -18323.425 
  236000    297.55465   -18379.103    55.346756   -18323.756 
  237000    296.07626   -18377.069    55.071768   -18321.997 
  238000    300.54232   -18376.727    55.902479   -18320.824 
  239000    302.40947   -18384.932    56.249779   -18328.682 
  240000    294.39006    -18375.67    54.758126   -18320.912 
  241000    301.75237   -18381.739    56.127555   -18325.612 
  242000    292.74144   -18380.975    54.451474   -18326.523 
  243000    301.77506   -18380.081    56.131776   -18323.949 
  244000    301.28168    -18376.09    56.040005    -18320.05 
  245000    307.07524   -18386.764    57.117638   -18329.646 
  246000    295.45253   -18381.392     54.95575   -18326.436 
  247000    305.95518   -18372.637    56.909299   -18315.727 
  248000    305.89579    -18380.55    56.898254   -18323.651 
  249000    297.66685   -18379.617    55.367626    -18324.25 
  250000    305.91365   -18381.127    56.901576   -18324.226 
  251000    293.10249   -18377.867    54.518631   -18323.348 
  252000    308.14002   -18382.601    57.315693   -18325.285 
  253000    295.01005   -18378.904    54.873448   -18324.031 
  254000    300.62986   -18380.273    55.918761   -18324.354 
  255000    305.30192   -18382.378     56.78779   -18325.591 
  256000    303.55698   -18377.259    56.463223   -18320.796 
  257000      293.005     -18381.1    54.500497   -18326.599 
  258000    296.30316   -18377.307    55.113973   -18322.193 
  259000    299.17367   -18382.306    55.647903   -18326.658 
  260000    294.01255   -18381.262    54.687907   -18326.574 
  261000     304.9728   -18380.938    56.726572   -18324.211 
  262000    300.59892   -18384.242    55.913007   -18328.329 
  263000    289.96191   -18380.624    53.934465    -18326.69 
  264000     304.3253    -18378.85    56.606134   -18322.244 
  265000    299.81678   -18382.793    55.767525   -18327.026 
  266000    304.29124   -18381.557    56.599798   -18324.957 
  267000    295.30241   -18381.777    54.927828   -18326.849 
  268000    295.04926   -18384.534    54.880741   -18329.654 
  269000    295.57468   -18375.985    54.978472   -18321.007 
  270000    305.96163   -18378.568      56.9105   -18321.657 
  271000    301.10944   -18380.518    56.007966    -18324.51 
  272000    294.71617   -18372.628    54.818783   -18317.809 
  273000    301.65923   -18373.998    56.110231   -18317.888 
  274000    297.58291   -18380.745    55.352014   -18325.393 
  275000    295.95702   -18383.499    55.049588    -18328.45 
  276000    301.13926   -18379.989    56.013513   -18323.976 
  277000    302.44192   -18381.188    56.255815   -18324.932 
  278000      303.549   -18374.534    56.461738   -18318.072 
  279000    301.92252   -18384.528    56.159204   -18328.368 
  280000    296.98892   -18383.556    55.241527   -18328.315 
  281000    299.61659   -18376.822    55.730288   -18321.092 
  282000    292.82769   -18376.459    54.467517   -18321.991 
  283000    297.46398   -18374.914    55.329892   -18319.584 
  284000    298.86525   -18379.281    55.590535    -18323.69 
  285000    301.54553   -18386.047    56.089082   -18329.958 
  286000    298.50171   -18381.195    55.522915   -18325.672 
  287000    304.65482   -18387.475    56.667427   -18330.807 
  288000    298.78599   -18376.744    55.575793   -18321.169 
  289000    301.07131   -18380.309    56.000875   -18324.308 
  290000    308.44024   -18379.019    57.371534   -18321.648 
  291000    291.77451   -18377.367    54.271619   -18323.095 
  292000    296.42539    -18379.97    55.136707   -18324.833 
  293000    295.51498   -18377.134    54.967366   -18322.167 
  294000     296.4451   -18384.926    55.140375   -18329.786 
  295000     297.8633   -18377.982    55.404167   -18322.578 
  296000    298.09187   -18380.769    55.446681   -18325.322 
  297000    295.45355   -18374.159     54.95594   -18319.203 
  298000    295.35252   -18381.362    54.937148   -18326.425 
  299000    306.21996   -18377.735     56.95855   -18320.777 
  300000    297.74872   -18385.676    55.382854   -18330.293 
  301000    302.83165   -18382.041    56.328307   -18325.712 
  302000    307.70801    -18381.43    57.235335   -18324.194 
  303000    293.80578   -18377.309    54.649447    -18322.66 
  304000    302.44682   -18373.805    56.256726   -18317.549 
  305000    300.56684    -18376.79    55.907039   -18320.883 
  306000    299.16063   -18373.805    55.645478   -18318.159 
  307000    300.87986   -18373.498    55.965263   -18317.532 
  308000    302.89799   -18381.122    56.340647   -18324.782 
  309000    300.04411   -18381.669     55.80981   -18325.859 
  310000    300.53078   -18376.596    55.900332   -18320.695 
  311000    304.79934   -18372.824    56.694308    -18316.13 
  312000    295.36059   -18383.015    54.938649   -18328.077 
  313000    299.22391    -18373.82    55.657248   -18318.163 
  314000    297.67769   -18375.144    55.369642   -18319.775 
  315000    296.57197   -18379.228    55.163972   -18324.064 
  316000      293.845   -18376.822    54.656742   -18322.166 
  317000    305.95998   -18373.811    56.910193     -18316.9 
  318000     306.9337   -18377.595    57.091309   -18320.503 
  319000     297.3083    -18379.78    55.300934   -18324.479 
  320000    304.73836   -18380.286    56.682964   -18323.604 
  321000    309.53843   -18380.986    57.575804    -18323.41 
  322000    295.06405   -18377.663    54.883491   -18322.779 
  323000    285.55898   -18378.056    53.115498    -18324.94 
  324000    298.08535    -18377.86    55.445469   -18322.415 
  325000    301.83738   -18383.966    56.143367   -18327.823 
  326000    302.11468   -18379.938    56.194946   -18323.743 
  327000    309.03651   -18383.488    57.482444   -18326.005 
  328000    302.59344   -18378.212    56.283998   -18321.928 
  329000    303.01574   -18383.394    56.362548   -18327.032 
  330000    296.77645    -18372.69    55.202007   -18317.488 
  331000    293.04424   -18383.306    54.507796   -18328.798 
  332000    302.94193   -18380.557     56.34882   -18324.208 
  333000    309.78237    -18377.83    57.621177   -18320.209 
  334000    293.68091    -18375.98     54.62622   -18321.354 
  335000    299.30573   -18381.102    55.672467   -18325.429 
  336000    296.17777    -18374.75    55.090649   -18319.659 
  337000     298.5395    -18383.82    55.529943    -18328.29 
  338000    302.84427   -18378.483    56.330653   -18322.153 
  339000    299.55386   -18375.673    55.718621   -18319.954 
  340000    304.67653   -18380.142    56.671464    -18323.47 
  341000    300.84269   -18375.345     55.95835   -18319.386 
  342000    290.93803   -18373.238    54.116029   -18319.121 
  343000    301.42757   -18375.624     56.06714   -18319.557 
  344000     297.7223   -18379.628    55.377941    -18324.25 
  345000    295.78541   -18376.288    55.017668   -18321.271 
  346000    296.05358   -18378.888    55.067548   -18323.821 
  347000    297.03711   -18374.555    55.250491   -18319.304 
  348000    305.26627    -18378.81    56.781158   -18322.029 
  349000    302.49131   -18372.571    56.265001   -18316.306 
  350000    300.22837   -18375.587    55.844083   -18319.743 
  351000    304.85791   -18374.239    56.705201   -18317.533 
  352000     301.3094   -18375.973     56.04516   -18319.928 
  353000    299.76792    -18371.32    55.758437   -18315.562 
  354000    297.19049   -18372.068    55.279021   -18316.789 
  355000    302.43801   -18375.249    56.255087   -18318.994 
  356000    294.07624   -18371.147    54.699753   -18316.447 
  357000     301.8537   -18373.222    56.146402   -18317.075 
  358000    299.81311   -18377.726    55.766842   -18321.959 
  359000    303.26946   -18374.167    56.409742   -18317.758 
  360000    294.97223   -18378.305    54.866412   -18323.439 
  361000    306.66149   -18381.224    57.040678   -18324.183 
  362000    298.26984   -18373.627    55.479786   -18318.147 
  363000    298.28174   -18381.268    55.481999   -18325.786 
  364000    297.10269   -18378.159    55.262689   -18322.897 
  365000    300.10799   -18377.972    55.821692    -18322.15 
  366000    296.20619   -18384.183    55.095936   -18329.087 
  367000    297.74764   -18380.028    55.382654   -18324.645 
  368000    298.11574   -18373.353    55.451123   -18317.901 
  369000      289.866   -18383.936    53.916627   -18330.019 
  370000    300.30658   -18381.736     55.85863   -18325.877 
  371000    290.99955   -18378.848    54.127472    -18324.72 
  372000    306.40901   -18374.875    56.993715   -18317.881 
  373000    302.11173   -18375.654    56.194397    -18319.46 
  374000    293.41102   -18381.452     54.57602   -18326.876 
  375000    305.56802   -18376.729    56.837287   -18319.892 
  376000    288.05567   -18378.942    53.579896   -18325.362 
  377000     294.1479   -18372.647    54.713083   -18317.934 
  378000    295.68696   -18376.452    54.999355   -18321.452 
  379000    296.56294   -18372.597    55.162293   -18317.435 
  380000    298.89438    -18372.82    55.595953   -18317.224 
  381000    303.60889   -18378.312    56.472878   -18321.839 
  382000    296.95262   -18383.745    55.234776    -18328.51 
  383000    312.16222   -18377.118    58.063842   -18319.054 
  384000    298.71614   -18377.349    55.562799   -18321.786 
  385000    296.13548   -18377.394    55.082783   -18322.312 
  386000    303.60051   -18378.412    56.471318   -18321.941 
  387000    293.85503   -18379.376    54.658606   -18324.717 
  388000    296.83846     -18379.8    55.213542   -18324.587 
  389000     298.8834   -18370.422     55.59391   -18314.828 
  390000    299.09186    -18378.35    55.632686   -18322.717 
  391000    295.37302   -18376.684    54.940962   -18321.743 
  392000    306.46091   -18372.375    57.003369   -18315.372 
  393000    298.52911   -18374.956    55.528012   -18319.428 
  394000    299.47282    -18379.97    55.703546   -18324.266 
  395000    299.84181   -18373.547     55.77218   -18317.775 
  396000    302.32047   -18374.776    56.233224   -18318.543 
  397000    295.98673   -18380.947    55.055115   -18325.891 
  398000     306.6857   -18379.834    57.045181   -18322.789 
  399000     300.0371   -18379.027    55.808506   -18323.219 
  400000    301.62641   -18376.574    56.104126    -18320.47 
  401000    294.79564   -18375.022    54.833565   -18320.189 
  402000    304.90701   -18379.237    56.714335   -18322.522 
  403000    297.09566   -18375.127    55.261382   -18319.866 
  404000    301.44305   -18378.756    56.070019   -18322.686 
  405000    306.31093   -18381.897    56.975471   -18324.921 
  406000    299.77491    -18374.55    55.759737    -18318.79 
  407000    302.90337   -18379.604    56.341648   -18323.262 
  408000    302.58518   -18375.637    56.282463   -18319.354 
  409000    299.65599   -18374.281    55.737618   -18318.544 
  410000    303.16076   -18374.535    56.389522   -18318.145 
  411000    304.20067   -18378.918    56.582952   -18322.335 
  412000    295.65251   -18375.075    54.992948   -18320.083 
  413000    293.32725   -18380.038    54.560438   -18325.478 
  414000    296.46026   -18375.262    55.143193   -18320.119 
  415000    307.87193   -18377.269    57.265825   -18320.003 
  416000    302.52417   -18375.092    56.271113   -18318.821 
  417000     299.0074   -18373.279    55.616975   -18317.662 
  418000     288.2092   -18373.446    53.608453   -18319.838 
  419000    303.69575    -18370.58    56.489035   -18314.091 
  420000     291.1989   -18364.045    54.164553   -18309.881 
  421000    302.48037   -18375.128    56.262966   -18318.865 
  422000    303.66275   -18381.986    56.482896   -18325.503 
  423000    305.20063   -18385.185     56.76895   -18328.416 
  424000    300.02112   -18377.131    55.805533   -18321.325 
  425000    297.80586   -18379.875    55.393483   -18324.481 
  426000    297.48439   -18377.947    55.333687   -18322.614 
  427000    298.97711   -18381.187    55.611341   -18325.575 
  428000    295.49243   -18374.592    54.963172   -18319.629 
  429000     296.8343   -18369.912    55.212768   -18314.699 
  430000    302.97429   -18378.376    56.354839   -18322.021 
  431000    294.91547   -18374.439    54.855855   -18319.583 
  432000    303.70621   -18380.512    56.490979   -18324.021 
  433000    300.64481   -18382.949    55.921542   -18327.027 
  434000    311.59246   -18371.183    57.957864   -18313.225 
  435000    294.11439   -18381.814     54.70685   -18327.107 
  436000    293.77797   -18377.732    54.644274   -18323.087 
  437000      301.586   -18382.995     56.09661   -18326.898 
  438000    303.63095   -18379.687    56.476982    -18323.21 
  439000    296.10662   -18370.914    55.077415   -18315.836 
  440000    300.29522   -18379.587    55.856518   -18323.731 
  441000    303.07695   -18379.186    56.373933   -18322.812 
  442000    294.05068   -18378.108    54.694998   -18323.413 
  443000    304.62016   -18377.493    56.660979   -18320.832 
  444000    295.70446   -18371.952     55.00261    -18316.95 
  445000    297.39033   -18375.039    55.316193   -18319.723 
  446000    298.47253   -18376.397    55.517487    -18320.88 
  447000    304.22171   -18372.386    56.586866   -18315.799 
  448000    300.95981   -18375.271    55.980135   -18319.291 
  449000    299.22247   -18377.521     55.65698   -18321.864 
  450000    294.90609   -18375.769     54.85411   -18320.915 
  451000    302.49013   -18371.831    56.264782   -18315.566 
  452000    299.91743   -18374.902    55.786247   -18319.116 
  453000    295.14806   -18376.232    54.899117   -18321.333 
  454000    299.90885   -18379.756    55.784651   -18323.971 
  455000    302.78762   -18376.541    56.320117   -18320.221 
  456000    300.98419    -18375.41    55.984669   -18319.426 
  457000    290.72186   -18374.827    54.075821   -18320.751 
  458000    312.17277   -18376.416    58.065805    -18318.35 
  459000    306.48142   -18379.234    57.007184   -18322.227 
  460000    297.76292   -18373.046    55.385496   -18317.661 
  461000    301.11112   -18373.663    56.008279   -18317.655 
  462000    297.29029    -18376.65    55.297585   -18321.353 
  463000     302.4794   -18378.666    56.262787   -18322.403 
  464000    295.02293   -18377.159    54.875843   -18322.283 
  465000     292.5147   -18369.812    54.409299   -18315.402 
  466000    305.44385   -18377.418     56.81419   -18320.604 
  467000    299.33858   -18378.716    55.678577   -18323.038 
  468000    301.53665   -18379.382    56.087429   -18323.294 
  469000    301.37896   -18376.526    56.058099   -18320.468 
  470000    292.88378    -18374.64    54.477949   -18320.162 
  471000     311.0985   -18380.385    57.865984   -18322.519 
  472000    298.69745   -18379.538    55.559323   -18323.979 
  473000    301.76868   -18372.935    56.130588   -18316.804 
  474000    295.83901   -18380.419    55.027638   -18325.391 
  475000    301.25864   -18377.023    56.035718   -18320.987 
  476000    307.29641   -18375.346    57.158777   -18318.187 
  477000    296.53979    -18376.67    55.157988   -18321.512 
  478000    298.02255    -18374.77    55.433788   -18319.336 
  479000    295.37412   -18374.363    54.941167   -18319.422 
  480000    302.31539   -18379.886     56.23228   -18323.654 
  481000    301.72166   -18380.635    56.121843   -18324.513 
  482000    297.09907   -18374.752    55.262017    -18319.49 
  483000    296.50093   -18379.535     55.15076   -18324.385 
  484000    303.41139   -18379.405    56.436141   -18322.969 
  485000    296.24097   -18373.548    55.102405   -18318.445 
  486000    301.45033   -18375.446    56.071373   -18319.375 
  487000    301.07422   -18375.202    56.001416   -18319.201 
  488000    309.57184   -18381.297    57.582019   -18323.715 
  489000     299.4228   -18379.774    55.694243   -18324.079 
  490000    305.30935   -18374.621    56.789173   -18317.832 
  491000    303.26521   -18381.252     56.40895   -18324.843 
  492000    301.25017   -18373.187    56.034143   -18317.153 
  493000    302.03733   -18380.221    56.180559   -18324.041 
  494000      295.726    -18372.52    55.006617   -18317.513 
  495000    294.44826   -18374.046     54.76895   -18319.277 
  496000    307.66905    -18379.52    57.228088   -18322.292 
  497000    307.25511   -18377.424    57.151094   -18320.273 
  498000    304.25501   -18373.371    56.593059   -18316.778 
  499000    300.64438   -18377.014    55.921462   -18321.092 
  500000    306.77266   -18382.173    57.061355   -18325.112 
  501000    302.51025   -18375.237    56.268524   -18318.969 
  502000    296.89322   -18383.431    55.223727   -18328.207 
  503000    302.43463   -18374.939    56.254459   -18318.684 
  504000    302.07723    -18377.57     56.18798   -18321.382 
  505000    309.91758   -18381.545    57.646328   -18323.898 
  506000    298.63284   -18372.301    55.547305   -18316.753 
  507000    302.48545   -18381.038    56.263912   -18324.774 
  508000    302.19445   -18375.578    56.209784   -18319.368 
  509000    301.43971   -18369.915    56.069398   -18313.845 
  510000    296.95123   -18368.692    55.234518   -18313.458 
  511000    297.51821   -18372.983    55.339978   -18317.643 
  512000    299.72592   -18380.714    55.750624   -18324.963 
  513000    300.94376   -18380.588     55.97715    -18324.61 
  514000    296.22509   -18376.146    55.099451   -18321.047 
  515000    290.73455   -18373.359    54.078182   -18319.281 
  516000    305.93125   -18379.528    56.904849   -18322.623 
  517000    311.54855   -18382.043    57.949696   -18324.094 
  518000    295.04093   -18379.247     54.87919   -18324.368 
  519000    304.54359   -18378.624    56.646737   -18321.978 
  520000    300.72968   -18376.081    55.937329   -18320.144 
  521000    294.14038   -18376.377    54.711685   -18321.665 
  522000    294.12858   -18376.451    54.709489   -18321.742 
  523000    298.15114   -18378.118    55.457706   -18322.661 
  524000    294.69269   -18378.965    54.814417   -18324.151 
  525000    302.48304   -18376.954    56.263464   -18320.691 
  526000    296.01904   -18375.969    55.061124   -18320.908 
  527000     298.7161   -18371.078    55.562792   -18315.515 
  528000    300.89957   -18380.014    55.968929   -18324.045 
  529000    297.02066   -18370.421    55.247432   -18315.174 
  530000    301.46034   -18379.614    56.073235   -18323.541 
  531000    304.35435   -18377.298    56.611537   -18320.687 
  532000    302.10235   -18380.052    56.192653    -18323.86 
  533000    301.33344   -18377.874    56.049632   -18321.825 
  534000    307.66208   -18376.837    57.226792    -18319.61 
  535000    307.19053   -18383.239    57.139081     -18326.1 
  536000    306.11894   -18383.072     56.93976   -18326.133 
  537000    309.89239   -18370.617    57.641641   -18312.975 
  538000    295.56089   -18378.184    54.975906   -18323.209 
  539000    301.90038   -18372.431    56.155085   -18316.276 
  540000    303.41985   -18373.981    56.437716   -18317.544 
  541000    308.94819   -18378.061    57.466016   -18320.595 
  542000    306.63008   -18377.686    57.034835   -18320.651 
  543000    295.99162   -18376.765    55.056024   -18321.709 
  544000    292.88913   -18373.789    54.478945    -18319.31 
  545000    297.35852   -18374.871    55.310275   -18319.561 
  546000    294.76074   -18374.185    54.827074   -18319.358 
  547000    294.91182   -18372.641    54.855175   -18317.786 
  548000    306.06367   -18373.133    56.929479   -18316.203 
  549000    301.14409   -18377.314    56.014412   -18321.299 
  550000     304.6568   -18374.917    56.667795   -18318.249 
  551000     302.1877   -18376.914    56.208529   -18320.705 
  552000    303.75001   -18374.572    56.499127   -18318.073 
  553000    294.96546   -18377.015    54.865154    -18322.15 
  554000    311.09055   -18378.459    57.864506   -18320.594 
  555000    303.52783   -18372.894    56.457799   -18316.437 
  556000    301.91409    -18376.55    56.157636   -18320.392 
  557000    299.90647   -18372.667    55.784207   -18316.883 
  558000    300.28862   -18374.868     55.85529   -18319.013 
  559000    296.65771   -18375.735     55.17992   -18320.556 
  560000     306.9795   -18373.255    57.099828   -18316.155 
  561000    305.72082   -18377.687    56.865708   -18320.821 
  562000    301.05352   -18374.671    55.997566   -18318.673 
  563000     304.6164   -18379.853    56.660279   -18323.193 
  564000    308.75761   -18375.006    57.430568   -18317.575 
  565000    293.79734   -18378.995    54.647877   -18324.347 
  566000    298.28901   -18379.925    55.483351   -18324.442 
  567000    292.34732   -18381.551    54.378165   -18327.173 
  568000    305.56751    -18380.29    56.837192   -18323.453 
  569000    291.61895   -18382.329    54.242685   -18328.086 
  570000    300.37545   -18381.477     55.87144   -18325.606 
  571000    306.11861   -18377.537    56.939699   -18320.597 
  572000    302.75362   -18379.419    56.313793   -18323.106 
  573000    296.61558   -18377.389    55.172084   -18322.217 
  574000    310.32697   -18382.955    57.722475   -18325.232 
  575000    309.99587   -18378.082     57.66089   -18320.421 
  576000    294.98766   -18382.597    54.869282   -18327.727 
  577000    298.73292   -18373.843    55.565921   -18318.277 
  578000    296.36789   -18385.373    55.126012   -18330.247 
  579000    301.41174   -18377.216    56.064195   -18321.152 
  580000    299.21405   -18377.899    55.655414   -18322.244 
  581000     299.4915   -18377.814    55.707021   -18322.107 
  582000    295.99149   -18376.702    55.056001   -18321.646 
  583000    299.46433   -18374.566    55.701966   -18318.864 
  584000    298.74271   -18378.221    55.567741   -18322.653 
  585000    294.56065   -18375.324    54.789856   -18320.535 
  586000    294.79996   -18374.955     54.83437   -18320.121 
  587000    291.52216   -18375.962    54.224681   -18321.737 
  588000    306.09397   -18380.669    56.935116   -18323.734 
  589000    299.94177   -18379.509    55.790773   -18323.719 
  590000    304.91016   -18370.006    56.714921   -18313.291 
  591000    296.83248   -18380.291    55.212429   -18325.079 
  592000     296.5613   -18370.842    55.161988    -18315.68 
  593000    298.36888   -18383.003    55.498208   -18327.505 
  594000     297.0204   -18380.093    55.247383   -18324.846 
  595000     294.8594   -18375.976    54.845426    -18321.13 
  596000    303.11167   -18379.165    56.380392   -18322.785 
  597000    299.56804    -18377.39    55.721257   -18321.669 
  598000     300.0935   -18383.407    55.818996   -18327.588 
  599000    290.06391   -18378.304    53.953439    -18324.35 
  600000    299.51085   -18378.814     55.71062   -18323.103 
  601000    297.19279   -18371.401    55.279449   -18316.122 
  602000    297.93287   -18385.667    55.417107    -18330.25 
  603000    300.59373   -18377.558    55.912042   -18321.646 
  604000    298.68561   -18374.227    55.557122    -18318.67 
  605000     297.8856   -18385.334    55.408315   -18329.926 
  606000    298.11485   -18377.145    55.450956   -18321.695 
  607000    295.59934   -18378.794    54.983058   -18323.811 
  608000    295.86898   -18377.311    55.033212   -18322.278 
  609000    298.82696   -18378.894    55.583414   -18323.311 
  610000    293.13732   -18376.303     54.52511   -18321.777 
  611000    303.64134   -18376.665    56.478914   -18320.186 
  612000    299.20537   -18371.888    55.653798   -18316.234 
  613000    304.47109   -18380.426    56.633252   -18323.793 
  614000    298.01077    -18374.82    55.431596   -18319.388 
  615000     294.5214   -18376.356    54.782555   -18321.574 
  616000     305.3788   -18381.658    56.802091   -18324.856 
  617000    297.89202   -18378.149     55.40951    -18322.74 
  618000     299.7346    -18378.93    55.752239   -18323.178 
  619000    304.30782   -18375.904    56.602882   -18319.301 
  620000    304.26901   -18375.485    56.595663    -18318.89 
  621000    298.33565   -18374.008    55.492026   -18318.516 
  622000    292.44698   -18380.656    54.396703   -18326.259 
  623000    287.81787   -18381.866    53.535663    -18328.33 
  624000    302.64834   -18380.559     56.29421   -18324.265 
  625000    300.68798   -18381.261    55.929572   -18325.332 
  626000    299.70435   -18372.513    55.746612   -18316.767 
  627000    290.16635   -18376.251    53.972492   -18322.278 
  628000      299.617   -18384.328    55.730365   -18328.598 
  629000    298.62765    -18371.73     55.54634   -18316.183 
  630000    294.21855   -18379.511    54.726223   -18324.785 
  631000    293.57951   -18379.277    54.607359    -18324.67 
  632000    302.92207   -18379.623    56.345125   -18323.278 
  633000     300.8623   -18374.059    55.961998   -18318.097 
  634000    295.61389   -18372.133    54.985765   -18317.147 
  635000    297.50057    -18381.01    55.336697   -18325.674 
  636000    293.66498   -18377.348    54.623256   -18322.725 
  637000    294.78475   -18382.097    54.831541   -18327.265 
  638000     297.0078   -18373.763     55.24504   -18318.518 
  639000    294.77572   -18373.466    54.829861   -18318.636 
  640000    295.00716   -18376.033     54.87291    -18321.16 
  641000    303.45501   -18379.761    56.444254   -18323.317 
  642000    289.36977   -18380.057    53.824326   -18326.233 
  643000     304.7074   -18378.878    56.677206   -18322.201 
  644000    296.70467   -18382.555    55.188656   -18327.366 
  645000    295.06351   -18383.257    54.883391   -18328.373 
  646000    298.06669    -18379.06    55.441999   -18323.618 
  647000    300.39008   -18379.071    55.874162   -18323.197 
  648000    292.58586   -18373.282    54.422534   -18318.859 
  649000    297.58123   -18376.661      55.3517   -18321.309 
  650000    305.62067   -18376.973    56.847079   -18320.125 
  651000    291.04866   -18378.916    54.136607    -18324.78 
  652000     306.0752    -18385.85    56.931624   -18328.919 
  653000    301.58768   -18379.601    56.096922   -18323.504 
  654000    297.05202   -18372.626    55.253265   -18317.373 
  655000    300.44951   -18377.301    55.885217   -18321.416 
  656000    294.92754   -18380.492      54.8581   -18325.634 
  657000    302.67279   -18386.403    56.298758   -18330.104 
  658000    296.71095   -18378.508    55.189825   -18323.318 
  659000    302.94782   -18379.577    56.349916   -18323.227 
  660000    302.03771   -18379.941    56.180629   -18323.761 
  661000    300.17537   -18379.095    55.834225   -18323.261 
  662000    301.58425   -18377.045    56.096283   -18320.949 
  663000    300.20828   -18375.245    55.840346   -18319.405 
  664000    311.43993   -18385.474    57.929492   -18327.544 
  665000    298.31685   -18379.714    55.488529   -18324.225 
  666000    298.75933   -18380.879    55.570834   -18325.308 
  667000    299.51794   -18377.844    55.711939   -18322.132 
  668000    301.98571   -18376.866    56.170957   -18320.695 
  669000    305.42627   -18380.565    56.810919   -18323.754 
  670000    292.30716    -18375.93    54.370695   -18321.559 
  671000    302.40315   -18381.306    56.248604   -18325.057 
  672000    299.21547   -18379.835    55.655678    -18324.18 
  673000    294.40501   -18383.044    54.760906   -18328.284 
  674000     305.2178   -18380.353    56.772143   -18323.581 
  675000    290.20803   -18376.572    53.980246   -18322.592 
  676000    302.70477   -18380.779    56.304706   -18324.474 
  677000    290.10533   -18375.295    53.961144   -18321.334 
  678000    296.35322   -18378.678    55.123285   -18323.555 
  679000    306.91253   -18379.769    57.087372   -18322.681 
  680000    293.61613   -18378.846    54.614171   -18324.232 
  681000    306.47713   -18378.636    57.006385    -18321.63 
  682000    302.52732   -18379.981    56.271699   -18323.709 
  683000    297.93531    -18381.75    55.417561   -18326.333 
  684000    298.09698    -18388.84    55.447632   -18333.393 
  685000    303.76328   -18380.359    56.501594   -18323.857 
  686000    302.29117   -18379.516    56.227775   -18323.288 
  687000    298.90743   -18382.461    55.598381   -18326.863 
  688000    298.73523   -18382.441     55.56635   -18326.875 
  689000    305.48231   -18382.979    56.821344   -18326.157 
  690000    299.83185    -18381.17    55.770328     -18325.4 
  691000     308.9544   -18383.812    57.467171   -18326.345 
  692000    301.23086   -18378.524    56.030551   -18322.493 
  693000    297.04112   -18386.845    55.251237   -18331.593 
  694000    295.37175   -18374.857    54.940726   -18319.916 
  695000    307.80565   -18382.836    57.253497   -18325.583 
  696000    296.95909   -18383.308    55.235979   -18328.072 
  697000    298.48797   -18373.791    55.520359    -18318.27 
  698000     298.3467   -18382.758    55.494082   -18327.263 
  699000    297.68802   -18383.744    55.371563   -18328.372 
  700000    292.97004   -18378.567    54.493995   -18324.073 
  701000    296.11329   -18381.683    55.078656   -18326.605 
  702000    302.92204   -18380.459     56.34512   -18324.114 
  703000    310.17211   -18380.375    57.693672   -18322.681 
  704000    299.83105   -18378.801    55.770179    -18323.03 
  705000    300.23074   -18383.633    55.844523   -18327.788 
  706000    299.14429   -18378.192    55.642438    -18322.55 
  707000    306.33839   -18382.648    56.980579   -18325.668 
  708000    295.55089   -18383.193    54.974047   -18328.219 
  709000    300.10279   -18379.281    55.820724    -18323.46 
  710000    305.59731   -18378.752    56.842733   -18321.909 
  711000    301.66628   -18377.783    56.111541   -18321.672 
  712000     304.9924   -18377.039    56.730218   -18320.309 
  713000    305.83646   -18386.903    56.887216   -18330.016 
  714000    307.95809   -18380.159    57.281852   -18322.877 
  715000    299.12016   -18378.767     55.63795   -18323.129 
  716000    304.21473   -18378.094    56.585567   -18321.509 
  717000    294.57913   -18385.375    54.793294   -18330.582 
  718000    295.99619   -18384.863    55.056875   -18329.806 
  719000    301.76728    -18384.62    56.130329    -18328.49 
  720000    295.00493   -18381.047    54.872496   -18326.175 
  721000    302.49014   -18381.478    56.264784   -18325.213 
  722000    296.09732   -18377.555    55.075685    -18322.48 
  723000    299.32243   -18378.727    55.675573   -18323.051 
  724000    305.67083   -18380.768    56.856409   -18323.911 
  725000    297.92707   -18378.814    55.416029   -18323.398 
  726000    302.27541   -18381.395    56.224843    -18325.17 
  727000    295.29916   -18384.221    54.927224   -18329.293 
  728000    308.54593   -18382.113    57.391193   -18324.722 
  729000    304.07001   -18375.159    56.558649     -18318.6 
  730000    303.87644    -18380.19    56.522643   -18323.668 
  731000    306.75335   -18380.304    57.057764   -18323.246 
  732000    302.12861   -18377.616    56.197538   -18321.419 
  733000    298.84537   -18384.978    55.586838   -18329.391 
  734000    301.85259   -18380.008    56.146196   -18323.862 
  735000    302.64169   -18380.928    56.292974   -18324.635 
  736000    301.51346   -18381.626    56.083116   -18325.543 
  737000    299.66389   -18387.577    55.739087   -18331.838 
  738000    302.86907   -18384.286    56.335266   -18327.951 
  739000    296.47864   -18378.005    55.146612   -18322.859 
  740000     301.7566   -18381.038    56.128341   -18324.909 
  741000      298.106   -18376.715     55.44931   -18321.266 
  742000    296.05419   -18378.594    55.067663   -18323.526 
  743000    301.65685   -18376.308    56.109788   -18320.198 
  744000    304.08903   -18377.886    56.562186   -18321.324 
  745000    302.41932   -18380.416    56.251611   -18324.164 
  746000    306.28235   -18378.002    56.970156   -18321.032 
  747000    304.49945   -18383.427    56.638527   -18326.788 
  748000    298.05873   -18384.526    55.440518   -18329.086 
  749000    304.30573   -18374.902    56.602494     -18318.3 
  750000     306.3661   -18377.275    56.985733   -18320.289 
  751000    298.63312    -18374.99    55.547357   -18319.443 
  752000    297.55407   -18374.328    55.346648   -18318.982 
  753000    299.00089   -18380.312    55.615765   -18324.696 
  754000    302.80678   -18379.708    56.323681   -18323.384 
  755000    300.62807   -18378.793    55.918429   -18322.874 
  756000    304.74444   -18381.413    56.684096   -18324.729 
  757000    302.43261   -18381.691    56.254082   -18325.437 
  758000    290.08593   -18374.599    53.957535   -18320.641 
  759000    303.35781   -18376.895    56.426176   -18320.469 
  760000     291.6658   -18385.311    54.251399    -18331.06 
  761000    302.53132   -18383.832    56.272443    -18327.56 
  762000    295.68171   -18383.047     54.99838   -18328.049 
  763000    303.55381   -18379.426    56.462633   -18322.964 
  764000    292.30012   -18382.873    54.369386   -18328.504 
  765000    309.33541   -18380.584     57.53804   -18323.046 
  766000    305.78301   -18378.693    56.877276   -18321.816 
  767000    297.75082   -18381.516    55.383244   -18326.132 
  768000     299.5484   -18386.241    55.717604   -18330.523 
  769000     301.8615   -18381.924    56.147854   -18325.776 
  770000     292.2642   -18381.655    54.362705   -18327.292 
  771000    302.86569   -18386.806    56.334639   -18330.472 
  772000    306.18887   -18385.316    56.952767   -18328.363 
  773000    302.46703   -18382.744    56.260485   -18326.484 
  774000    301.75205    -18385.92    56.127495   -18329.792 
  775000    306.17918   -18382.811    56.950965    -18325.86 
  776000     304.2668   -18381.661    56.595252   -18325.066 
  777000    298.46415    -18383.68    55.515928   -18328.164 
  778000    306.01305   -18386.706    56.920064   -18329.786 
  779000    304.24114   -18384.192     56.59048   -18327.602 
  780000    299.07227   -18384.152    55.629041   -18328.523 
  781000    298.80104   -18383.804    55.578591   -18328.226 
  782000    297.70503   -18378.091    55.374727   -18322.716 
  783000    306.67319   -18385.107    57.042854   -18328.064 
  784000    301.02385   -18382.122    55.992046    -18326.13 
  785000    294.72385   -18382.081    54.820213   -18327.261 
  786000    298.88776    -18381.19    55.594722   -18325.596 
  787000    293.23291   -18383.772    54.542889   -18329.229 
  788000    298.18727   -18385.218    55.464427   -18329.754 
  789000    302.60579   -18380.237    56.286296    -18323.95 
  790000    295.50945   -18381.959    54.966338   -18326.993 
  791000    302.81276   -18379.986    56.324793   -18323.662 
  792000     295.6985   -18382.359    55.001503   -18327.357 
  793000    295.02823   -18378.039    54.876829   -18323.162 
  794000    293.34634   -18384.943    54.563987   -18330.379 
  795000    304.20968   -18376.331    56.584628   -18319.746 
  796000    302.00812   -18380.045    56.175126    -18323.87 
  797000    298.61803   -18384.128     55.54455   -18328.583 
  798000    297.67565   -18390.008    55.369263   -18334.639 
  799000    295.82867   -18388.287    55.025715   -18333.261 
  800000    299.08184   -18376.673    55.630823   -18321.043 
  801000    292.63063   -18385.403    54.430862   -18330.972 
  802000    295.89527   -18389.729    55.038103   -18334.691 
  803000    297.75983   -18380.831    55.384921   -18325.446 
  804000    306.40197   -18382.293    56.992405   -18325.301 
  805000    294.21607   -18377.737    54.725763   -18323.011 
  806000    299.39238   -18377.683    55.688584   -18321.994 
  807000    306.59027    -18384.87     57.02743   -18327.843 
  808000    299.63061   -18385.899    55.732897   -18330.166 
  809000    294.95928   -18380.221    54.864003   -18325.357 
  810000    297.69888   -18375.503    55.373584   -18320.129 
  811000    308.43537   -18381.553    57.370628   -18324.182 
  812000    299.49213   -18379.659    55.707138   -18323.952 
  813000    300.39839   -18381.634    55.875707   -18325.758 
  814000    293.23564   -18376.866    54.543397   -18322.322 
  815000    300.42303   -18377.609    55.880291   -18321.728 
  816000    305.38484   -18382.121    56.803214   -18325.318 
  817000    299.56594    -18382.13    55.720868   -18326.409 
  818000     299.9466    -18383.73    55.791673   -18327.938 
  819000    301.13271     -18379.1    56.012296   -18323.088 
  820000    302.20704     -18386.7    56.212127   -18330.488 
  821000    301.44903   -18377.428    56.071132   -18321.357 
  822000    295.42392   -18385.895    54.950428   -18330.944 
  823000    295.93582   -18374.975    55.045646    -18319.93 
  824000    299.43875   -18381.998    55.697209     -18326.3 
  825000    293.46166    -18383.59    54.585439   -18329.004 
  826000    299.04008   -18380.717    55.623054   -18325.094 
  827000     294.4048   -18382.091    54.760868    -18327.33 
  828000    304.61016   -18379.887    56.659119   -18323.228 
  829000    300.23348   -18386.009    55.845033   -18330.164 
  830000    305.33514   -18384.262    56.793969   -18327.468 
  831000    300.95722   -18385.876    55.979652   -18329.896 
  832000    302.03444   -18382.337    56.180022   -18326.157 
  833000    290.02387   -18380.561    53.945991   -18326.615 
  834000    303.84992   -18378.251     56.51771   -18321.733 
  835000    300.22436   -18380.332    55.843337   -18324.489 
  836000    296.84438   -18385.396    55.214643   -18330.182 
  837000    299.85357   -18380.197    55.774368   -18324.423 
  838000    298.66381   -18384.498    55.553066   -18328.945 
  839000     308.6183   -18381.418    57.404654   -18324.013 
  840000    292.77932   -18380.828    54.458519    -18326.37 
  841000    299.34027   -18383.696    55.678891   -18328.017 
  842000    298.27186   -18387.409    55.480162   -18331.929 
  843000      298.147    -18381.25    55.456936   -18325.793 
  844000    300.02664   -18380.807     55.80656       -18325 
  845000    303.49684   -18383.418    56.452036   -18326.966 
  846000    299.97399   -18383.685    55.796766   -18327.888 
  847000    299.54636   -18377.751    55.717224   -18322.034 
  848000    296.48962   -18386.148    55.148654       -18331 
  849000    302.03267   -18382.411    56.179692   -18326.231 
  850000    298.71574   -18384.348    55.562725   -18328.785 
  851000    300.08624   -18380.615    55.817646   -18324.798 
  852000    300.83498   -18384.877    55.956915    -18328.92 
  853000    303.94423   -18388.979    56.535252   -18332.444 
  854000    298.47035   -18383.429    55.517082   -18327.911 
  855000    295.56733    -18387.25    54.977103   -18332.273 
  856000    296.15471   -18383.793     55.08636   -18328.707 
  857000    303.72485   -18388.767    56.494446   -18332.272 
  858000    299.43354   -18381.022     55.69624   -18325.326 
  859000    303.10224   -18383.754    56.378638   -18327.375 
  860000    304.60984   -18380.446    56.659059   -18323.787 
  861000    300.99469   -18381.059    55.986622   -18325.072 
  862000    295.28137   -18384.838    54.923914   -18329.915 
  863000    299.08171   -18377.473    55.630798   -18321.842 
  864000    295.46919   -18385.618    54.958849   -18330.659 
  865000    303.65036   -18385.309    56.480591   -18328.828 
  866000    294.51348   -18377.625    54.781082   -18322.844 
  867000    298.55334   -18382.841    55.532517   -18327.309 
  868000    305.44953   -18381.555    56.815246    -18324.74 
  869000    294.08005   -18381.385    54.700463   -18326.685 
  870000    297.09836   -18384.724    55.261884   -18329.462 
  871000    306.77712   -18380.031    57.062186   -18322.968 
  872000    296.16208   -18380.722    55.087731   -18325.634 
  873000    295.17604   -18379.854    54.904322    -18324.95 
  874000    303.40553   -18381.397    56.435051   -18324.962 
  875000     297.3494   -18379.243    55.308579   -18323.934 
  876000    302.71458   -18381.016    56.306532   -18324.709 
  877000    297.55308   -18378.038    55.346464   -18322.692 
  878000    303.22612   -18386.601    56.401679   -18330.199 
  879000    293.81187   -18381.144     54.65058   -18326.494 
  880000    304.94738   -18384.937    56.721843   -18328.215 
  881000    302.27478   -18382.204    56.224726   -18325.979 
  882000    300.88475   -18382.247    55.966173   -18326.281 
  883000    292.30402   -18378.539    54.370111   -18324.169 
  884000    300.62911   -18389.466    55.918622   -18333.547 
  885000    299.69981   -18385.188    55.745768   -18329.442 
  886000    292.54933   -18374.935    54.415741   -18320.519 
  887000    294.39986   -18379.859    54.759948   -18325.099 
  888000    304.54787   -18387.958    56.647533    -18331.31 
  889000    300.62871   -18386.763    55.918548   -18330.844 
  890000    304.38331   -18383.199    56.616923   -18326.582 
  891000    299.83038    -18385.61    55.770054    -18329.84 
  892000    299.98635   -18382.099    55.799066     -18326.3 
  893000    296.87125    -18389.26     55.21964    -18334.04 
  894000    301.44276    -18385.59    56.069966    -18329.52 
  895000    301.97885   -18381.785    56.169681   -18325.615 
  896000    296.88665   -18384.168    55.222504   -18328.945 
  897000    297.02729   -18379.506    55.248665   -18324.257 
  898000    297.29522   -18379.835    55.298501   -18324.537 
  899000    304.53934   -18384.307    56.645946   -18327.661 
  900000    293.70802   -18381.207    54.631264   -18326.575 
  901000      302.809   -18385.836    56.324093   -18329.512 
  902000    298.81921    -18384.07    55.581971   -18328.488 
  903000    309.07281   -18386.001    57.489197   -18328.512 
  904000    299.33958   -18382.198    55.678764   -18326.519 
  905000    296.72178   -18380.908    55.191838   -18325.717 
  906000    313.96871   -18389.984    58.399859   -18331.584 
  907000    296.13522   -18379.344    55.082735   -18324.262 
  908000    301.10658   -18389.126    56.007434   -18333.118 
  909000    297.31783   -18385.743    55.302707    -18330.44 
  910000    297.66269    -18381.56    55.366852   -18326.193 
  911000    298.68877   -18382.688    55.557709    -18327.13 
  912000    308.20459   -18382.998    57.327703   -18325.671 
  913000    293.75707   -18381.061    54.640387    -18326.42 
  914000     303.7891   -18385.945    56.506397   -18329.438 
  915000     299.6714   -18379.911    55.740484   -18324.171 
  916000    300.32346   -18377.688     55.86177   -18321.826 
  917000    303.74767   -18379.416    56.498692   -18322.918 
  918000    293.72936   -18383.961    54.635232   -18329.325 
  919000     298.3018   -18388.585     55.48573   -18333.099 
  920000    301.56309   -18385.021    56.092348   -18328.928 
  921000    302.78402   -18384.682    56.319448   -18328.363 
  922000    301.18669   -18388.429    56.022336   -18332.406 
  923000    308.30416   -18383.172    57.346224   -18325.826 
  924000    302.14549   -18383.024    56.200677   -18326.823 
  925000    300.46053    -18380.47    55.887265   -18324.583 
  926000     301.1797   -18383.244    56.021035   -18327.223 
  927000    292.89781   -18377.174     54.48056   -18322.693 
  928000    300.64224   -18383.051    55.921065    -18327.13 
  929000    302.54048   -18384.787    56.274148   -18328.513 
  930000    299.14708    -18383.94    55.642957   -18328.297 
  931000     300.5747   -18380.491    55.908503   -18324.583 
  932000     305.6983   -18386.339    56.861518   -18329.478 
  933000    306.26654   -18385.601    56.967214   -18328.634 
  934000    295.02687   -18380.447    54.876576   -18325.571 
  935000      296.496   -18382.757    55.149841   -18327.607 
  936000    294.94336   -18386.227    54.861042   -18331.366 
  937000    299.74281   -18387.116    55.753766   -18331.362 
  938000    306.25175   -18382.675    56.964463   -18325.711 
  939000    305.48359   -18383.969    56.821581   -18327.148 
  940000    293.55151   -18380.265    54.602151   -18325.663 
  941000    303.11251   -18381.936    56.380548   -18325.556 
  942000    301.19179   -18382.099    56.023284   -18326.076 
  943000     296.7757   -18375.557    55.201868   -18320.355 
  944000    302.96562   -18384.746    56.353227   -18328.393 
  945000    300.83583   -18385.906    55.957073   -18329.948 
  946000    295.13398   -18382.553    54.896498   -18327.656 
  947000    297.34919   -18384.317     55.30854   -18329.009 
  948000    296.53928   -18386.815    55.157892   -18331.657 
  949000    299.94783   -18382.385    55.791901   -18326.593 
  950000    307.24889   -18389.296    57.149936   -18332.146 
  951000    294.50782   -18383.142    54.780029   -18328.362 
  952000    295.63176   -18376.372    54.989089   -18321.383 
  953000    302.87927   -18389.542    56.337165   -18333.204 
  954000    297.13702   -18380.928    55.269075   -18325.659 
  955000     308.7479   -18385.168    57.428761   -18327.739 
  956000    298.72978     -18379.5    55.565336   -18323.935 
  957000    300.22586   -18386.406    55.843616   -18330.562 
  958000    293.50974   -18375.912    54.594382   -18321.317 
  959000    301.30627   -18385.405    56.044577   -18329.361 
  960000    301.22577   -18383.148    56.029605   -18327.118 
  961000    296.94333   -18382.395    55.233048   -18327.162 
  962000    302.59269   -18385.566    56.283859   -18329.282 
  963000    291.67275   -18382.808    54.252692   -18328.555 
  964000    304.85372   -18391.919    56.704422   -18335.215 
  965000    299.56304   -18387.838    55.720328   -18332.118 
  966000    299.94818   -18379.648    55.791966   -18323.856 
  967000    303.73223   -18384.354     56.49582   -18327.858 
  968000     304.7101   -18378.541    56.677709   -18321.863 
  969000    295.11339   -18389.587    54.892669   -18334.694 
  970000    301.48464   -18381.722    56.077756   -18325.644 
  971000    297.74144   -18385.901    55.381501    -18330.52 
  972000    303.35978   -18378.739    56.426541   -18322.313 
  973000    297.78665     -18381.3    55.389909    -18325.91 
  974000    306.33928   -18386.268    56.980744   -18329.287 
  975000    289.48897   -18382.325    53.846496   -18328.479 
  976000    298.60033   -18381.757    55.541258   -18326.216 
  977000    304.49095   -18379.124    56.636946   -18322.487 
  978000    308.27975   -18383.824    57.341682   -18326.483 
  979000    294.78321   -18384.766    54.831254   -18329.935 
  980000    298.34342   -18381.873    55.493471   -18326.379 
  981000    310.22792   -18388.823    57.704053   -18331.119 
  982000    299.92138   -18382.812    55.786981   -18327.025 
  983000    299.47366   -18384.496    55.703703   -18328.792 
  984000    299.83804   -18384.447    55.771479   -18328.675 
  985000    294.65555   -18379.076    54.807509   -18324.269 
  986000    295.47547   -18381.637    54.960017   -18326.677 
  987000    299.99442   -18380.343    55.800566   -18324.542 
  988000    303.88668    -18388.71    56.524548   -18332.186 
  989000    293.27188   -18381.001    54.550138    -18326.45 
  990000    295.94257   -18381.693    55.046901   -18326.646 
  991000    295.65144   -18382.988    54.992749   -18327.995 
  992000    302.88985   -18383.432    56.339132   -18327.093 
  993000    297.00206   -18376.974    55.243972    -18321.73 
  994000    304.05857   -18386.866     56.55652    -18330.31 
  995000    305.38949   -18389.675    56.804078   -18332.871 
  996000     295.0425   -18379.514    54.879484   -18324.635 
  997000    296.06853   -18376.754     55.07033   -18321.684 
  998000    303.69958   -18382.724    56.489746   -18326.234 
  999000    299.40392   -18378.404    55.690731   -18322.713 
 1000000    293.53733   -18372.267    54.599514   -18317.668 
 1000005    289.65945   -18374.706    53.878206   -18320.827 
Loop time of 4549.78 on 16 procs for 1000000 steps with 1440 atoms

Performance: 18.990 ns/day, 1.264 hours/ns, 219.791 timesteps/s
70.8% CPU use with 16 MPI tasks x no OpenMP threads

MPI task timing breakdown:
Section |  min time  |  avg time  |  max time  |%varavg| %total
---------------------------------------------------------------
Pair    | 4.359      | 584.96     | 1445.1     |2425.1 | 12.86
Bond    | 0.10343    | 0.13691    | 0.18715    |   6.5 |  0.00
Kspace  | 2229.6     | 2484.8     | 3141.2     | 571.8 | 54.61
Neigh   | 0.023642   | 0.56828    | 1.4093     |  73.6 |  0.01
Comm    | 116.94     | 1253.1     | 2170.7     |2160.4 | 27.54
Output  | 0.67632    | 0.67808    | 0.69283    |   0.5 |  0.01
Modify  | 108.88     | 207.67     | 547.33     |1078.5 |  4.56
Other   |            | 17.84      |            |       |  0.39

Nlocal:    90 ave 193 max 0 min
Histogram: 8 0 0 0 0 0 0 0 2 6
Nghost:    725.688 ave 1024 max 440 min
Histogram: 8 0 0 0 0 0 0 0 0 8
Neighs:    7460.88 ave 17886 max 0 min
Histogram: 8 0 0 0 0 0 0 3 4 1

Total # of neighbors = 119374
Ave neighs/atom = 82.8986
Ave special neighs/atom = 0
Neighbor list builds = 1731
Dangerous builds = 0
######################################################
unfix           npt

fix		3 fl setforce 0 0 0
fix		4 fr setforce 0 0 0
velocity	fl set 0 0 0 units  box
velocity	fr set 0 0 0 units  box

fix	    5 hot  nvt temp 320 320 0.01
fix	    6 cold nvt temp 280 280 0.01
fix         7 middle nve
fix         8 fl nve
fix         9 fr nve

run             1000000
Ewald initialization ...
  using 12-bit tables for long-range coulomb (../kspace.cpp:319)
  G vector (1/distance) = 0.209789
  estimated absolute RMS force accuracy = 0.159237
  estimated relative force accuracy = 0.0110584
  KSpace vectors: actual max1d max3d = 722 7 1687
                  kxmax kymax kzmax  = 7 7 6
Per MPI rank memory allocation (min/avg/max) = 17.49 | 18.19 | 18.9 Mbytes
Step Temp PotEng KinEng TotEng 
 1000005    212.04132   -18373.411    39.440819    -18333.97 
 1001000     233.0915   -18375.827    43.356266   -18332.471 
 1002000    225.17242   -18374.456    41.883274   -18332.573 
 1003000    216.53531   -18372.254    40.276726   -18331.977 
 1004000    214.97758   -18374.617    39.986981    -18334.63 
 1005000    216.62672   -18381.765    40.293728   -18341.471 
 1006000     220.3331   -18378.982    40.983134   -18337.999 
 1007000    221.74245   -18377.028    41.245283   -18335.783 
 1008000    223.60367   -18379.546    41.591478   -18337.954 
 1009000    232.10432   -18376.371    43.172645   -18333.199 
 1010000    220.96938     -18380.2    41.101487   -18339.098 
 1011000    223.11273   -18380.249    41.500161   -18338.748 
 1012000    219.96671   -18377.209    40.914985   -18336.294 
 1013000    213.00679   -18376.083    39.620403   -18336.463 
 1014000    218.00324   -18377.037    40.549769   -18336.487 
 1015000    221.21058    -18380.43    41.146352   -18339.284 
 1016000    222.32787   -18382.273    41.354174   -18340.919 
 1017000     235.6922   -18379.121    43.840011    -18335.28 
 1018000    219.19715   -18377.937    40.771843   -18337.166 
 1019000     233.4839   -18378.236    43.429254   -18334.806 
 1020000    219.77289   -18379.625    40.878933   -18338.746 
 1021000    225.98112   -18381.432    42.033696   -18339.398 
 1022000    222.31525   -18377.913    41.351825   -18336.561 
 1023000    218.39702   -18382.985    40.623014   -18342.362 
 1024000    218.25339   -18379.314    40.596298   -18338.718 
 1025000    221.82872   -18378.644    41.261329   -18337.383 
 1026000    215.85772   -18377.614     40.15069   -18337.463 
 1027000    222.77659    -18374.89    41.437636   -18333.452 
 1028000    219.96957   -18378.612    40.915516   -18337.696 
 1029000    233.52684   -18373.053    43.437242   -18329.616 
 1030000    219.62236   -18382.105    40.850934   -18341.254 
 1031000    225.90693   -18382.141    42.019898   -18340.121 
 1032000    232.16744   -18376.655    43.184386    -18333.47 
 1033000    231.86861   -18378.279    43.128801    -18335.15 
 1034000    220.08617   -18371.072    40.937205   -18330.135 
 1035000    223.83939   -18376.573    41.635324   -18334.938 
 1036000    234.13487   -18376.946    43.550338   -18333.396 
 1037000    224.32096   -18375.637    41.724899   -18333.912 
 1038000    222.88131   -18372.272    41.457115   -18330.815 
 1039000     222.8973   -18379.127    41.460091   -18337.667 
 1040000    225.68555    -18380.05    41.978719   -18338.072 
 1041000     234.8043   -18378.215    43.674855    -18334.54 
 1042000    231.53952   -18375.963    43.067589   -18332.895 
 1043000    230.51203   -18378.734     42.87647   -18335.858 
 1044000    220.21467   -18380.216    40.961107   -18339.255 
 1045000    225.36322   -18378.263    41.918764   -18336.345 
 1046000    222.36443   -18379.601    41.360973    -18338.24 
 1047000    221.66454   -18377.458    41.230791   -18336.228 
 1048000    219.33692   -18382.403     40.79784   -18341.605 
 1049000    228.19851   -18381.289    42.446144   -18338.843 
 1050000    221.64421   -18380.667    41.227008    -18339.44 
 1051000    214.59964   -18379.725     39.91668   -18339.809 
 1052000    220.00033   -18377.522    40.921238   -18336.601 
 1053000     228.3951   -18378.949    42.482711   -18336.467 
 1054000    214.49112   -18377.267    39.896496   -18337.371 
 1055000    232.35785   -18380.096    43.219802   -18336.876 
 1056000    231.70656   -18374.349    43.098659    -18331.25 
 1057000    233.00724   -18378.277    43.340593   -18334.937 
 1058000    229.00791   -18376.393    42.596696   -18333.796 
 1059000    230.96068    -18375.82    42.959921    -18332.86 
 1060000    227.94687   -18373.952    42.399336   -18331.552 
 1061000    231.35957   -18379.676    43.034118   -18336.642 
 1062000    224.40877   -18380.654    41.741231   -18338.913 
 1063000     230.1824   -18379.396    42.815158   -18336.581 
 1064000    216.81362   -18374.005    40.328494   -18333.676 
 1065000    219.60468   -18377.869    40.847645   -18337.021 
 1066000    224.82566   -18377.785    41.818776   -18335.966 
 1067000    221.59023    -18381.85    41.216968   -18340.633 
 1068000    221.88947   -18383.175    41.272628   -18341.902 
 1069000    222.05062   -18381.273    41.302603   -18339.971 
 1070000    228.48373   -18379.699    42.499197     -18337.2 
 1071000    219.65066   -18376.308    40.856197   -18335.452 
 1072000    230.80219   -18375.002    42.930441   -18332.072 
 1073000    235.77285   -18376.484    43.855011   -18332.629 
 1074000    230.30578   -18380.277    42.838108   -18337.439 
 1075000    232.49371   -18375.286    43.245074   -18332.041 
 1076000    225.90035   -18377.381    42.018674   -18335.362 
 1077000    227.73554   -18374.588    42.360029   -18332.228 
 1078000    221.08759   -18376.378    41.123474   -18335.254 
 1079000    228.29945   -18379.525    42.464919    -18337.06 
 1080000    226.08389   -18374.006    42.052813   -18331.953 
 1081000     223.9905   -18380.455    41.663432   -18338.792 
 1082000    224.81759   -18379.388    41.817274   -18337.571 
 1083000    218.10452   -18377.703    40.568607   -18337.135 
 1084000    224.99039   -18379.757    41.849416   -18337.908 
 1085000    220.35805   -18376.809    40.987776   -18335.821 
 1086000    230.31315   -18379.623    42.839477   -18336.783 
 1087000    227.40419   -18377.525    42.298396   -18335.227 
 1088000    221.85646    -18376.46    41.266488   -18335.194 
 1089000    222.87398   -18381.422    41.455752   -18339.966 
 1090000    224.10042   -18385.509    41.683877   -18343.825 
 1091000    221.62354   -18375.909    41.223164   -18334.686 
 1092000    229.48962   -18385.317    42.686297    -18342.63 
 1093000    219.97752   -18381.332    40.916996   -18340.415 
 1094000    225.25094   -18378.464     41.89788   -18336.566 
 1095000    217.89426   -18373.596    40.529497   -18333.066 
 1096000    227.97774    -18383.99    42.405079   -18341.585 
 1097000    223.86632   -18379.947    41.640333   -18338.307 
 1098000    230.89031   -18377.523    42.946833   -18334.576 
 1099000    215.79572   -18374.101    40.139158   -18333.962 
 1100000    222.39638   -18383.249    41.366916   -18341.882 
 1101000    215.29485   -18377.589    40.045993   -18337.543 
 1102000    216.50006   -18378.365    40.270168   -18338.095 
 1103000    223.31617   -18374.519    41.538003   -18332.981 
 1104000    216.97786   -18375.491    40.359042   -18335.132 
 1105000    221.88832    -18376.52    41.272414   -18335.248 
 1106000    217.29662   -18374.736    40.418333   -18334.318 
 1107000    217.62433   -18375.014    40.479289   -18334.535 
 1108000    222.94807   -18375.412    41.469533   -18333.942 
 1109000    223.83046   -18376.923    41.633662   -18335.289 
 1110000    211.46827   -18379.897    39.334228   -18340.563 
 1111000    227.30673    -18372.31    42.280268    -18330.03 
 1112000    221.00182   -18373.124    41.107521   -18332.016 
 1113000    225.62256   -18373.256    41.967002   -18331.289 
 1114000    234.13637   -18379.933    43.550618   -18336.382 
 1115000    218.01904   -18379.405    40.552708   -18338.852 
 1116000    231.86884   -18381.493    43.128845   -18338.364 
 1117000    225.91817   -18377.609    42.021988   -18335.587 
 1118000    212.12823   -18379.344    39.456986   -18339.887 
 1119000    215.53234   -18381.378    40.090169   -18341.288 
 1120000    217.12469   -18375.281    40.386353   -18334.894 
 1121000    219.46159   -18381.251    40.821029    -18340.43 
 1122000    213.66023    -18377.98    39.741945   -18338.238 
 1123000    232.38995   -18381.563    43.225774   -18338.338 
 1124000    218.71119   -18382.761    40.681452    -18342.08 
 1125000    223.92339   -18376.947    41.650949   -18335.296 
 1126000    223.76799    -18372.64    41.622044   -18331.018 
 1127000    212.85291   -18380.624     39.59178   -18341.032 
 1128000    221.58315   -18376.962    41.215651   -18335.747 
 1129000     218.9523   -18377.214      40.7263   -18336.488 
 1130000    227.88716   -18381.922    42.388231   -18339.534 
 1131000    222.62857     -18376.6    41.410104    -18335.19 
 1132000    218.70145    -18375.65     40.67964    -18334.97 
 1133000    223.89597   -18375.995    41.645848   -18334.349 
 1134000    212.36763   -18376.724    39.501515   -18337.223 
 1135000    217.44256   -18381.112    40.445479   -18340.667 
 1136000    219.00846   -18377.045    40.736745   -18336.308 
 1137000    224.84972   -18374.028     41.82325   -18332.205 
 1138000    218.72533    -18373.46     40.68408   -18332.776 
 1139000    221.37954   -18376.572    41.177779   -18335.395 
 1140000    222.76822   -18377.338    41.436081   -18335.902 
 1141000    214.72513    -18377.86    39.940022    -18337.92 
 1142000    228.74762   -18373.323    42.548281   -18330.775 
 1143000    226.37793    -18379.87    42.107506   -18337.762 
 1144000    219.46012   -18379.375    40.820756   -18338.554 
 1145000    224.84985   -18376.556    41.823275   -18334.733 
 1146000    220.68888   -18376.039    41.049311    -18334.99 
 1147000    225.12025   -18376.569     41.87357   -18334.696 
 1148000    229.15772   -18376.497    42.624562   -18333.873 
 1149000    228.45968   -18382.081    42.494722   -18339.586 
 1150000    230.18166     -18378.7     42.81502   -18335.885 
 1151000    231.51398   -18377.816    43.062839   -18334.753 
 1152000     223.8589   -18379.923    41.638952   -18338.284 
 1153000    223.64847   -18375.878    41.599811   -18334.279 
 1154000    224.68736   -18376.636    41.793051   -18334.843 
 1155000    230.70091   -18378.691    42.911603   -18335.779 
 1156000    219.32619   -18377.667    40.795844   -18336.871 
 1157000    223.40977   -18374.147    41.555413   -18332.592 
 1158000    214.67664   -18375.767    39.931004   -18335.836 
 1159000    214.49447    -18380.94    39.897119   -18341.043 
 1160000    220.69436   -18377.345    41.050331   -18336.295 
 1161000    220.21938   -18374.956    40.961982   -18333.994 
 1162000    228.24448   -18376.757    42.454694   -18334.302 
 1163000    224.54242     -18383.7    41.766091   -18341.934 
 1164000    223.43319   -18380.928    41.559769   -18339.368 
[...]
  699000    219.90253   -18383.999    40.903047   -18343.096 
  700000    223.58355   -18384.363    41.587736   -18342.776 
  701000    224.62525   -18383.074    41.781498   -18341.292 
  702000     226.4528   -18379.064    42.121433   -18336.943 
  703000    212.87126   -18382.018    39.595192   -18342.423 
  704000      213.194   -18373.811    39.655225   -18334.156 
  705000    219.51983   -18374.756    40.831863   -18333.924 
  706000    218.44288   -18377.868    40.631545   -18337.236 
  707000    222.68303   -18378.695    41.420234   -18337.275 
  708000    227.81627   -18383.685    42.375046    -18341.31 
  709000    215.16462   -18379.393     40.02177   -18339.371 
  710000    221.29162   -18380.264    41.161425   -18339.102 
  711000      223.846   -18377.847    41.636552    -18336.21 
  712000     218.6347   -18380.023    40.667224   -18339.356 
  713000    224.16725   -18375.786    41.696307    -18334.09 
  714000    212.26409   -18368.848    39.482255   -18329.365 
  715000    213.95626   -18378.736    39.797009   -18338.939 
  716000    233.13362   -18380.753      43.3641   -18337.389 
  717000    224.93976   -18379.723    41.839998   -18337.883 
  718000    222.40805   -18376.307    41.369087   -18334.938 
  719000     223.0861   -18374.485    41.495208    -18332.99 
  720000    218.40049   -18374.575    40.623659   -18333.951 
  721000    223.63919    -18380.96    41.598086   -18339.362 
  722000    224.94588   -18378.082    41.841137   -18336.241 
  723000    224.78063   -18379.747      41.8104   -18337.937 
  724000    226.37279     -18378.7    42.106549   -18336.594 
  725000    223.26527   -18375.169    41.528535    -18333.64 
  726000    225.33521   -18377.945    41.913554   -18336.031 
  727000    216.94249    -18374.65    40.352464   -18334.298 
  728000    224.35209   -18377.879    41.730688   -18336.148 
  729000    231.57395   -18376.986    43.073994   -18333.912 
  730000    233.25518   -18382.797    43.386712   -18339.411 
  731000    223.08597   -18373.494    41.495184   -18331.999 
  732000    214.54246   -18379.294    39.906044   -18339.388 
  733000    217.57488   -18377.173    40.470091   -18336.703 
  734000    221.65939   -18381.703    41.229833   -18340.473 
  735000    232.56411   -18375.954    43.258168   -18332.695 
  736000    217.66499   -18370.962    40.486853   -18330.476 
  737000    220.19051    -18374.21    40.956612   -18333.253 
  738000    222.19518   -18375.429    41.329491   -18334.099 
  739000    221.95921   -18381.421      41.2856   -18340.135 
  740000    222.54414   -18378.743      41.3944   -18337.349 
  741000    223.90947   -18375.271    41.648358   -18333.622 
  742000    224.17834   -18381.016     41.69837   -18339.318 
  743000    223.71586   -18374.217    41.612346   -18332.605 
  744000    227.77856   -18385.112     42.36803   -18342.744 
  745000    228.54486   -18381.219    42.510567   -18338.708 
  746000    213.87743   -18378.408    39.782345   -18338.626 
  747000    225.36291   -18381.308    41.918706   -18339.389 
  748000    218.24715   -18378.444    40.595137   -18337.849 
  749000    221.71538   -18378.201    41.240246   -18336.961 
  750000    220.46398   -18378.675     41.00748   -18337.668 
  751000    211.35176   -18379.908    39.312557   -18340.596 
  752000    223.71292   -18378.563    41.611799   -18336.952 
  753000    223.33033   -18373.954    41.540636   -18332.414 
  754000    217.89534   -18376.951    40.529698   -18336.421 
  755000    223.00789   -18380.468    41.480661   -18338.988 
  756000    225.12777   -18376.154    41.874969   -18334.279 
  757000     227.8382   -18375.186    42.379124   -18332.806 
  758000    222.35118   -18381.677     41.35851   -18340.319 
  759000    213.85948   -18378.012    39.779007   -18338.233 
  760000    216.63703   -18380.335    40.295647   -18340.039 
  761000    220.75763   -18375.382      41.0621   -18334.319 
  762000    219.45223   -18380.639    40.819289    -18339.82 
  763000    235.37347   -18384.166    43.780724   -18340.386 
  764000    216.94391   -18380.092    40.352727   -18339.739 
  765000    222.23469   -18375.542    41.336842   -18334.205 
  766000    228.04201   -18375.748    42.417033   -18333.331 
  767000    228.10583   -18376.335    42.428904   -18333.906 
  768000    235.32564   -18381.821    43.771828    -18338.05 
  769000    231.15045   -18381.115     42.99522    -18338.12 
  770000     217.9924   -18376.981    40.547752   -18336.434 
  771000    221.64621   -18374.149     41.22738   -18332.921 
  772000    225.88833   -18380.794    42.016438   -18338.777 
  773000    223.66747   -18376.223    41.603345    -18334.62 
  774000    227.33886   -18374.177    42.286244   -18331.891 
  775000     234.4013   -18373.079    43.599896   -18329.479 
  776000    224.00526     -18377.4    41.666176   -18335.733 
  777000    228.39964   -18380.938    42.483555   -18338.454 
  778000    217.43027   -18377.048    40.443194   -18336.605 
  779000    227.88435   -18373.852    42.387708   -18331.464 
  780000    218.08658   -18381.145     40.56527    -18340.58 
  781000    217.51928   -18378.968    40.459749   -18338.508 
  782000     227.1842   -18382.876    42.257476   -18340.618 
  783000     216.1515    -18375.72    40.205336   -18335.514 
  784000     223.3867   -18376.991     41.55112   -18335.439 
  785000    223.21552   -18377.761    41.519281   -18336.242 
  786000    229.88563   -18381.847    42.759957   -18339.087 
  787000    223.83724   -18377.551    41.634924   -18335.916 
  788000    219.76325   -18373.172     40.87714   -18332.295 
  789000    228.34577   -18379.549    42.473535   -18337.076 
  790000    225.50437   -18380.083     41.94502   -18338.138 
  791000    216.86785   -18379.315    40.338579   -18338.976 
  792000    225.26118   -18378.092    41.899784   -18336.192 
  793000    219.88266   -18379.527     40.89935   -18338.628 
  794000    214.61456   -18376.436    39.919455   -18336.517 
  795000    216.20637   -18382.181    40.215541   -18341.966 
  796000    217.31224    -18380.01    40.421238   -18339.589 
  797000    221.81279    -18379.54    41.258365   -18338.281 
  798000    220.95612    -18375.12    41.099019   -18334.021 
  799000    223.56393   -18377.811    41.584086   -18336.226 
  800000    219.77608   -18375.656    40.879525   -18334.777 
  801000    225.70815   -18376.682    41.982923   -18334.699 
  802000    224.26316   -18378.027    41.714147   -18336.312 
  803000    216.35618    -18373.31    40.243407   -18333.067 
  804000      216.035   -18376.945    40.183666   -18336.762 
  805000    226.61007    -18384.44    42.150686    -18342.29 
  806000    234.55153   -18378.578     43.62784    -18334.95 
  807000    227.21602   -18378.096    42.263394   -18335.833 
  808000    216.68753   -18382.957    40.305039   -18342.652 
  809000    212.06203   -18378.683    39.444672   -18339.239 
  810000     218.6104   -18380.704    40.662703   -18340.041 
  811000    216.93592   -18376.934    40.351241   -18336.582 
  812000    213.36473    -18375.25    39.686982   -18335.563 
  813000    223.57399   -18378.129    41.585958   -18336.544 
  814000    219.10756   -18378.269    40.755179   -18337.514 
  815000    214.39401   -18376.055    39.878433   -18336.177 
  816000    221.98052     -18374.4    41.289563   -18333.111 
  817000      228.465   -18374.628    42.495712   -18332.132 
  818000    222.07454   -18379.559    41.307053   -18338.252 
  819000    220.35885   -18377.039    40.987925   -18336.051 
  820000    220.79074   -18376.401    41.068258   -18335.333 
  821000    221.84927   -18377.368     41.26515   -18336.103 
  822000    222.47559   -18377.532    41.381649    -18336.15 
  823000    227.36662    -18375.52    42.291407   -18333.228 
  824000    233.03977   -18382.911    43.346644   -18339.565 
  825000     220.1723   -18380.406    40.953226   -18339.453 
  826000    217.49484   -18374.963    40.455203   -18334.508 
  827000    221.27497   -18380.365    41.158329   -18339.206 
  828000    227.07725   -18377.196    42.237583   -18334.959 
  829000    218.85262   -18372.361    40.707757   -18331.653 
  830000    222.85422   -18373.488    41.452077   -18332.036 
  831000    225.04101   -18377.627    41.858831   -18335.768 
  832000    222.85446   -18374.609    41.452122   -18333.157 
  833000    214.65369   -18374.185    39.926735   -18334.258 
  834000    225.51683   -18376.383    41.947336   -18334.435 
  835000    219.89921   -18376.321     40.90243   -18335.419 
  836000    222.50692   -18378.161    41.387477   -18336.774 
  837000    222.88751   -18382.602    41.458268   -18341.144 
  838000    224.53536    -18377.04    41.764778   -18335.276 
  839000    226.26804   -18370.996    42.087066   -18328.909 
  840000    221.04454   -18378.572    41.115467   -18337.457 
  841000    225.24149   -18377.855    41.896121   -18335.959 
  842000    216.89671   -18377.554    40.343948    -18337.21 
  843000    232.55145   -18382.494    43.255814   -18339.238 
  844000    216.89958   -18376.506    40.344483   -18336.162 
  845000    216.26977   -18377.222    40.227335   -18336.995 
  846000    219.03953   -18383.032    40.742524    -18342.29 
  847000    217.79612   -18378.972    40.511243   -18338.461 
  848000    226.01141    -18379.68     42.03933   -18337.641 
  849000    220.33207   -18378.643    40.982943    -18337.66 
  850000     216.8912   -18379.572    40.342923   -18339.229 
  851000    225.44646   -18377.164    41.934248    -18335.23 
  852000    229.52389   -18380.117     42.69267   -18337.425 
  853000     219.9281   -18378.746    40.907802   -18337.838 
  854000    218.64722   -18380.721    40.669553   -18340.052 
  855000    224.85478   -18368.915    41.824192   -18327.091 
  856000     224.1759   -18376.729    41.697917   -18335.031 
  857000    231.70798   -18380.862    43.098924   -18337.763 
  858000    225.41091   -18377.954    41.927634   -18336.027 
  859000    215.52535   -18382.029    40.088867   -18341.941 
  860000     220.6295   -18377.602    41.038268   -18336.564 
  861000       219.22   -18371.034    40.776092   -18330.258 
  862000      224.428   -18379.009    41.744809   -18337.265 
  863000    223.97945   -18376.534    41.661375   -18334.873 
  864000    224.98689   -18380.612    41.848766   -18338.763 
  865000    225.39792   -18378.766     41.92522   -18336.841 
  866000    216.09463   -18373.695    40.194757     -18333.5 
  867000    225.59616   -18378.311    41.962093   -18336.348 
  868000    215.88137   -18380.125     40.15509    -18339.97 
  869000    218.66846   -18375.345    40.673503   -18334.671 
  870000     230.6704   -18372.921    42.905927   -18330.016 
  871000    226.92953   -18371.657    42.210107   -18329.447 
  872000    224.85051   -18373.622    41.823398   -18331.798 
  873000    219.09374   -18372.297    40.752608   -18331.545 
  874000    223.58674   -18380.151     41.58833   -18338.563 
  875000     215.4755   -18375.599    40.079595   -18335.519 
  876000    225.93324   -18377.138    42.024791   -18335.113 
  877000    221.35747   -18378.386    41.173673   -18337.213 
  878000    232.56478   -18373.532    43.258292   -18330.273 
  879000    219.84316   -18375.108    40.892003   -18334.216 
  880000    218.53877   -18378.126     40.64938   -18337.476 
  881000    217.00914   -18380.412    40.364861   -18340.047 
  882000     217.7798   -18378.608    40.508207     -18338.1 
  883000    217.18151   -18375.331    40.396923   -18334.934 
  884000    225.89045   -18378.686    42.016831   -18336.669 
  885000    221.11947   -18377.432    41.129404   -18336.303 
  886000    229.03846   -18379.164    42.602378   -18336.561 
  887000    217.74338   -18378.724    40.501433   -18338.223 
  888000    222.78914   -18380.396    41.439971   -18338.956 
  889000    222.60924   -18380.048     41.40651   -18338.642 
  890000    236.58289   -18376.431    44.005683   -18332.425 
  891000    229.09819   -18382.565    42.613489   -18339.951 
  892000    225.19996   -18379.428    41.888396   -18337.539 
  893000    224.24083   -18375.929    41.709993   -18334.219 
  894000    223.19055   -18378.199    41.514636   -18336.685 
  895000    227.71413   -18380.226    42.356046    -18337.87 
  896000     218.2037   -18375.241    40.587055   -18334.654 
  897000    220.82467     -18375.5     41.07457   -18334.425 
  898000    224.00444   -18376.644    41.666025   -18334.977 
  899000    222.80376   -18375.367     41.44269   -18333.925 
  900000      223.261   -18380.744    41.527739   -18339.217 
  901000    230.21824   -18381.062    42.821824    -18338.24 
  902000    221.51654   -18373.691    41.203261   -18332.488 
  903000    232.10719    -18376.37     43.17318   -18333.197 
  904000    222.72087   -18378.575    41.427273   -18337.148 
  905000    223.60238   -18376.894    41.591239   -18335.302 
  906000    222.48574   -18374.736    41.383538   -18333.352 
  907000     223.4217   -18371.708     41.55763    -18330.15 
  908000     222.7874   -18376.175    41.439648   -18334.735 
  909000    229.49449   -18375.114    42.687202   -18332.427 
  910000     228.6718   -18383.004    42.534178    -18340.47 
  911000    215.21626   -18377.698    40.031375   -18337.667 
  912000    231.91947   -18379.719    43.138261    -18336.58 
  913000     234.8839   -18381.045    43.689661   -18337.356 
  914000    225.50094   -18378.623    41.944382   -18336.679 
  915000     227.8647   -18377.721    42.384052   -18335.337 
  916000    228.86859   -18379.695    42.570782   -18337.124 
  917000    214.78464   -18376.331    39.951092    -18336.38 
  918000    219.76528   -18376.045    40.877518   -18335.168 
  919000    228.79605   -18378.478     42.55729   -18335.921 
  920000     227.4471   -18374.564    42.306377   -18332.257 
  921000    220.30797   -18371.568     40.97846    -18330.59 
  922000    229.55574   -18379.231    42.698595   -18336.532 
  923000    221.39934    -18378.23    41.181461   -18337.048 
  924000    215.06594   -18376.609    40.003415   -18336.605 
  925000    220.80853   -18382.307    41.071568   -18341.236 
  926000    207.43933   -18374.364    38.584824   -18335.779 
  927000    225.36095   -18379.237    41.918341   -18337.319 
  928000    232.56091   -18377.395    43.257572   -18334.137 
  929000    227.25005   -18377.703    42.269724   -18335.433 
  930000    224.20783   -18382.098    41.703855   -18340.394 
  931000    221.08342   -18381.079    41.122699   -18339.956 
  932000     224.7491   -18376.499    41.804534   -18334.694 
  933000     209.2891   -18379.351    38.928892   -18340.422 
  934000    220.78847   -18378.561    41.067837   -18337.493 
  935000    222.72542   -18376.403    41.428119   -18334.975 
  936000    230.07219   -18377.872    42.794658   -18335.078 
  937000    220.12386   -18378.655    40.944216   -18337.711 
  938000    224.28186   -18378.913    41.717626   -18337.196 
  939000     222.4513   -18376.241    41.377131   -18334.864 
  940000    215.73009   -18375.682     40.12695   -18335.555 
  941000      219.083   -18379.061    40.750609    -18338.31 
  942000    227.40993   -18377.565    42.299463   -18335.265 
  943000    214.88919   -18374.931    39.970539    -18334.96 
  944000    224.33867   -18374.152    41.728193   -18332.424 
  945000    233.95102   -18378.352    43.516141   -18334.836 
  946000     209.0106   -18373.208     38.87709   -18334.331 
  947000    227.87742   -18385.538     42.38642   -18343.152 
  948000    226.96699   -18377.782    42.217074   -18335.565 
  949000    223.08093    -18375.33    41.494245   -18333.836 
  950000    222.19032   -18378.382    41.328588   -18337.053 
  951000    225.37659   -18375.608    41.921251   -18333.687 
  952000    219.61287   -18377.809    40.849169    -18336.96 
  953000    236.18012   -18378.924    43.930766   -18334.993 
  954000    227.95042    -18375.06    42.399998    -18332.66 
  955000    225.45949   -18377.925    41.936671   -18335.988 
  956000    219.51051   -18374.237    40.830129   -18333.407 
  957000    223.58623   -18381.056    41.588236   -18339.468 
  958000    223.38583   -18380.124    41.550959   -18338.573 
  959000    221.69965   -18378.002    41.237321   -18336.764 
  960000    229.14894   -18378.248    42.622929   -18335.625 
  961000    218.67141   -18379.209    40.674052   -18338.534 
  962000    234.59331   -18377.843     43.63561   -18334.207 
  963000    221.77399   -18375.497    41.251149   -18334.246 
  964000    220.22837   -18382.794    40.963655   -18341.831 
  965000     226.1933   -18377.504    42.073164    -18335.43 
  966000    227.78183   -18377.566    42.368638   -18335.197 
  967000    228.57177   -18374.048    42.515572   -18331.532 
  968000    227.70909   -18377.851    42.355108   -18335.496 
  969000     220.4813   -18378.271    41.010701    -18337.26 
  970000    220.54218   -18376.621    41.022026   -18335.599 
  971000     225.6937   -18377.553    41.980235   -18335.573 
  972000    229.59022   -18373.861     42.70501   -18331.156 
  973000    222.84989   -18378.915    41.451272   -18337.464 
  974000    225.58649   -18374.747    41.960294   -18332.786 
  975000    224.57589   -18378.401    41.772317   -18336.629 
  976000    224.72734   -18376.767    41.800488   -18334.967 
  977000    223.65521   -18380.394    41.601065   -18338.793 
  978000    212.67393   -18379.821    39.558488   -18340.263 
  979000    214.03754   -18378.625    39.812128   -18338.813 
  980000    217.30415   -18375.632    40.419734   -18335.212 
  981000    233.78507   -18383.432    43.485274   -18339.947 
  982000    230.20085   -18376.455     42.81859   -18333.636 
  983000    227.69884   -18380.012    42.353202   -18337.659 
  984000     230.3112   -18383.703    42.839115   -18340.863 
  985000    235.26876   -18377.277    43.761248   -18333.516 
  986000    221.84665   -18373.699    41.264663   -18332.434 
  987000    222.07053   -18372.908    41.306306   -18331.602 
  988000    221.54837   -18374.539    41.209182    -18333.33 
  989000    224.56911   -18375.838    41.771055   -18334.067 
  990000    224.67025   -18375.966    41.789869   -18334.176 
  991000    224.25851   -18376.757    41.713282   -18335.044 
  992000    237.01878   -18379.274     44.08676   -18335.187 
  993000    220.50227   -18376.802    41.014601   -18335.788 
  994000    226.51837   -18374.649    42.133628   -18332.515 
  995000     221.6443   -18380.759    41.227025   -18339.532 
  996000    219.86781   -18378.162    40.896588   -18337.265 
  997000    217.82422    -18380.94    40.516469   -18340.424 
  998000    223.32616   -18377.489     41.53986   -18335.949 
  999000    225.16684   -18377.916    41.882236   -18336.033 
 1000000    229.43296   -18380.083    42.675758   -18337.407 
Loop time of 4947.63 on 16 procs for 1000000 steps with 1440 atoms

Performance: 17.463 ns/day, 1.374 hours/ns, 202.117 timesteps/s
71.6% CPU use with 16 MPI tasks x no OpenMP threads

MPI task timing breakdown:
Section |  min time  |  avg time  |  max time  |%varavg| %total
---------------------------------------------------------------
Pair    | 0.59107    | 621.18     | 1520.2     |2512.2 | 12.56
Bond    | 0.075959   | 0.11511    | 0.18521    |   9.0 |  0.00
Kspace  | 2281.7     | 2762.5     | 3392.4     | 917.2 | 55.83
Neigh   | 0.0047781  | 0.11203    | 0.26868    |  32.4 |  0.00
Comm    | 153.13     | 1406.6     | 2579.1     |2727.8 | 28.43
Output  | 0.63301    | 0.63594    | 0.67599    |   1.3 |  0.01
Modify  | 55.051     | 141.58     | 504.73     |1216.7 |  2.86
Other   |            | 14.9       |            |       |  0.30

Nlocal:    90 ave 196 max 0 min
Histogram: 8 0 0 0 0 0 0 0 3 5
Nghost:    726.375 ave 1027 max 436 min
Histogram: 8 0 0 0 0 0 0 0 0 8
Neighs:    7461.81 ave 18151 max 0 min
Histogram: 8 0 0 0 0 0 0 5 2 1

Total # of neighbors = 119389
Ave neighs/atom = 82.909
Ave special neighs/atom = 0
Neighbor list builds = 336
Dangerous builds = 0








Total wall time: 3:48:48
