ITEM: TIMESTEP
0
ITEM: NUMBER OF ATOMS
31752
ITEM: BOX BOUNDS
-31.336121	31.336121
-31.320192	31.320056
0.000000	341.100000

ITEM: ATOMS id type x y z
1	2	 2.196	27.560	0.000	0.000
2	2	 2.196	27.334	3.524	0.000
3	2	 2.196	31.336	0.000	0.000
4	2	 2.196	31.079	4.007	0.000
5	1	-1.098	29.448	0.000	0.398
6	1	-1.098	29.206	3.766	0.398
7	1	-1.098	27.560	0.000	1.973
8	1	-1.098	27.334	3.524	1.973
9	1	-1.098	31.336	0.000	1.973
10	1	-1.098	31.079	4.007	1.973
11	2	 2.196	29.448	0.000	2.372
12	2	 2.196	29.206	3.766	2.372
13	1	-1.098	29.388	1.887	2.770
14	1	-1.098	29.448	0.000	4.345
15	1	-1.098	29.206	3.766	4.345
16	2	 2.196	29.388	1.887	4.743
17	1	-1.098	27.503	1.766	5.141
18	1	-1.098	31.262	2.007	5.141
19	1	-1.098	29.388	1.887	6.716
20	2	 2.196	27.503	1.766	7.114
21	2	 2.196	31.272	2.008	7.114
22	1	-1.098	27.560	0.000	7.513
23	1	-1.098	27.334	3.524	7.513
24	1	-1.098	31.336	0.000	7.513
25	1	-1.098	31.079	4.007	7.513
26	1	-1.098	27.503	1.766	9.088
27	1	-1.098	31.272	2.008	9.088
28	2	 2.196	27.560	0.000	9.486
29	2	 2.196	27.334	3.524	9.486
30	2	 2.196	31.336	0.000	9.486
31	2	 2.196	31.079	4.007	9.486
32	2	 2.196	26.659	6.991	0.000
33	2	 2.196	30.311	7.948	0.000
34	1	-1.098	28.485	7.469	0.398
35	1	-1.098	26.659	6.991	1.973
36	1	-1.098	30.311	7.948	1.973
37	2	 2.196	28.485	7.469	2.372
38	1	-1.098	28.905	5.629	2.770
39	1	-1.098	28.485	7.469	4.345
40	2	 2.196	28.905	5.629	4.743
41	1	-1.098	27.052	5.268	5.141
42	1	-1.098	30.748	5.988	5.141
43	1	-1.098	28.905	5.629	6.716
44	2	 2.196	27.052	5.268	7.114
45	2	 2.196	30.758	5.990	7.114
46	1	-1.098	26.659	6.991	7.513
47	1	-1.098	30.311	7.948	7.513
48	1	-1.098	27.052	5.268	9.088
49	1	-1.098	30.758	5.990	9.088
50	2	 2.196	26.659	6.991	9.486
51	2	 2.196	30.311	7.948	9.486
52	2	 2.196	25.546	10.342	0.000
53	2	 2.196	29.046	11.759	0.000
54	1	-1.098	27.296	11.051	0.398
55	1	-1.098	25.546	10.342	1.973
56	1	-1.098	29.046	11.759	1.973
57	2	 2.196	27.296	11.051	2.372
58	1	-1.098	27.948	9.279	2.770
59	1	-1.098	27.296	11.051	4.345
60	2	 2.196	27.948	9.279	4.743
61	1	-1.098	26.156	8.684	5.141
62	1	-1.098	29.730	9.871	5.141
63	1	-1.098	27.948	9.279	6.716
64	2	 2.196	26.156	8.684	7.114
65	2	 2.196	29.740	9.874	7.114
66	1	-1.098	25.546	10.342	7.513
67	1	-1.098	29.046	11.759	7.513
68	1	-1.098	26.156	8.684	9.088
69	1	-1.098	29.740	9.874	9.088
70	2	 2.196	25.546	10.342	9.486
71	2	 2.196	29.046	11.759	9.486
72	2	 2.196	24.014	13.524	0.000
73	2	 2.196	27.304	15.377	0.000
74	1	-1.098	25.659	14.450	0.398
75	1	-1.098	24.014	13.524	1.973
76	1	-1.098	27.304	15.377	1.973
77	2	 2.196	25.659	14.450	2.372
78	1	-1.098	26.532	12.777	2.770
79	1	-1.098	25.659	14.450	4.345
80	2	 2.196	26.532	12.777	4.743
81	1	-1.098	24.831	11.958	5.141
82	1	-1.098	28.224	13.592	5.141
83	1	-1.098	26.532	12.777	6.716
84	2	 2.196	24.831	11.958	7.114
85	2	 2.196	28.233	13.596	7.114
86	1	-1.098	24.014	13.524	7.513
87	1	-1.098	27.304	15.377	7.513
88	1	-1.098	24.831	11.958	9.088
89	1	-1.098	28.233	13.596	9.088
90	2	 2.196	24.014	13.524	9.486
91	2	 2.196	27.304	15.377	9.486
92	2	 2.196	22.087	16.484	0.000
93	2	 2.196	25.113	18.742	0.000
94	1	-1.098	23.600	17.613	0.398
95	1	-1.098	22.087	16.484	1.973
96	1	-1.098	25.113	18.742	1.973
97	2	 2.196	23.600	17.613	2.372
98	1	-1.098	24.680	16.065	2.770
99	1	-1.098	23.600	17.613	4.345
100	2	 2.196	24.680	16.065	4.743
101	1	-1.098	23.098	15.035	5.141
102	1	-1.098	26.254	17.089	5.141
103	1	-1.098	24.680	16.065	6.716
104	2	 2.196	23.098	15.035	7.114
105	2	 2.196	26.263	17.095	7.114
106	1	-1.098	22.087	16.484	7.513
107	1	-1.098	25.113	18.742	7.513
108	1	-1.098	23.098	15.035	9.088
109	1	-1.098	26.263	17.095	9.088
110	2	 2.196	22.087	16.484	9.486
111	2	 2.196	25.113	18.742	9.486
112	2	 2.196	19.798	19.173	0.000
113	2	 2.196	22.511	21.800	0.000
114	1	-1.098	21.154	20.486	0.398
115	1	-1.098	19.798	19.173	1.973
116	1	-1.098	22.511	21.800	1.973
117	2	 2.196	21.154	20.486	2.372
118	1	-1.098	22.423	19.089	2.770
119	1	-1.098	21.154	20.486	4.345
120	2	 2.196	22.423	19.089	4.743
121	1	-1.098	20.986	17.865	5.141
122	1	-1.098	23.853	20.306	5.141
123	1	-1.098	22.423	19.089	6.716
124	2	 2.196	20.986	17.865	7.114
125	2	 2.196	23.861	20.313	7.114
126	1	-1.098	19.798	19.173	7.513
127	1	-1.098	22.511	21.800	7.513
128	1	-1.098	20.986	17.865	9.088
129	1	-1.098	23.861	20.313	9.088
130	2	 2.196	19.798	19.173	9.486
131	2	 2.196	22.511	21.800	9.486
132	2	 2.196	17.184	21.547	0.000
133	2	 2.196	19.538	24.499	0.000
134	1	-1.098	18.361	23.023	0.398
135	1	-1.098	17.184	21.547	1.973
136	1	-1.098	19.538	24.499	1.973
137	2	 2.196	18.361	23.023	2.372
138	1	-1.098	19.798	21.799	2.770
139	1	-1.098	18.361	23.023	4.345
140	2	 2.196	19.798	21.799	4.743
141	1	-1.098	18.529	20.402	5.141
142	1	-1.098	21.061	23.190	5.141
143	1	-1.098	19.798	21.799	6.716
144	2	 2.196	18.529	20.402	7.114
145	2	 2.196	21.068	23.197	7.114
146	1	-1.098	17.184	21.547	7.513
147	1	-1.098	19.538	24.499	7.513
148	1	-1.098	18.529	20.402	9.088
149	1	-1.098	21.068	23.197	9.088
150	2	 2.196	17.184	21.547	9.486
151	2	 2.196	19.538	24.499	9.486
152	2	 2.196	14.287	23.568	0.000
153	2	 2.196	16.245	26.796	0.000
154	1	-1.098	15.266	25.182	0.398
155	1	-1.098	14.287	23.568	1.973
156	1	-1.098	16.245	26.796	1.973
157	2	 2.196	15.266	25.182	2.372
158	1	-1.098	16.848	24.152	2.770
159	1	-1.098	15.266	25.182	4.345
160	2	 2.196	16.848	24.152	4.743
161	1	-1.098	15.768	22.604	5.141
162	1	-1.098	17.923	25.692	5.141
163	1	-1.098	16.848	24.152	6.716
164	2	 2.196	15.768	22.604	7.114
165	2	 2.196	17.928	25.701	7.114
166	1	-1.098	14.287	23.568	7.513
167	1	-1.098	16.245	26.796	7.513
168	1	-1.098	15.768	22.604	9.088
169	1	-1.098	17.928	25.701	9.088
170	2	 2.196	14.287	23.568	9.486
171	2	 2.196	16.245	26.796	9.486
172	2	 2.196	11.157	25.201	0.000
173	2	 2.196	12.685	28.654	0.000
174	1	-1.098	11.921	26.927	0.398
175	1	-1.098	11.157	25.201	1.973
176	1	-1.098	12.685	28.654	1.973
177	2	 2.196	11.921	26.927	2.372
178	1	-1.098	13.621	26.108	2.770
179	1	-1.098	11.921	26.927	4.345
180	2	 2.196	13.621	26.108	4.743
181	1	-1.098	12.748	24.434	5.141
182	1	-1.098	14.490	27.773	5.141
183	1	-1.098	13.621	26.108	6.716
184	2	 2.196	12.748	24.434	7.114
185	2	 2.196	14.495	27.782	7.114
186	1	-1.098	11.157	25.201	7.513
187	1	-1.098	12.685	28.654	7.513
188	1	-1.098	12.748	24.434	9.088
189	1	-1.098	14.495	27.782	9.088
190	2	 2.196	11.157	25.201	9.486
191	2	 2.196	12.685	28.654	9.486
192	2	 2.196	7.842	26.421	0.000
193	2	 2.196	8.917	30.041	0.000
194	1	-1.098	8.380	28.231	0.398
195	1	-1.098	7.842	26.421	1.973
196	1	-1.098	8.917	30.041	1.973
197	2	 2.196	8.380	28.231	2.372
198	1	-1.098	10.171	27.636	2.770
199	1	-1.098	8.380	28.231	4.345
200	2	 2.196	10.171	27.636	4.743
201	1	-1.098	9.519	25.864	5.141
202	1	-1.098	10.820	29.398	5.141
203	1	-1.098	10.171	27.636	6.716
204	2	 2.196	9.519	25.864	7.114
205	2	 2.196	10.823	29.408	7.114
206	1	-1.098	7.842	26.421	7.513
207	1	-1.098	8.917	30.041	7.513
208	1	-1.098	9.519	25.864	9.088
209	1	-1.098	10.823	29.408	9.088
210	2	 2.196	7.842	26.421	9.486
211	2	 2.196	8.917	30.041	9.486
212	2	 2.196	4.399	27.207	0.000
213	2	 2.196	5.002	30.934	0.000
214	1	-1.098	4.701	29.071	0.398
215	1	-1.098	4.399	27.207	1.973
216	1	-1.098	5.002	30.934	1.973
217	2	 2.196	4.701	29.071	2.372
218	1	-1.098	6.554	28.710	2.770
219	1	-1.098	4.701	29.071	4.345
220	2	 2.196	6.554	28.710	4.743
221	1	-1.098	6.133	26.869	5.141
222	1	-1.098	6.972	30.541	5.141
223	1	-1.098	6.554	28.710	6.716
224	2	 2.196	6.133	26.869	7.114
225	2	 2.196	6.974	30.550	7.114
226	1	-1.098	4.399	27.207	7.513
227	1	-1.098	5.002	30.934	7.513
228	1	-1.098	6.133	26.869	9.088
229	1	-1.098	6.974	30.550	9.088
230	2	 2.196	4.399	27.207	9.486
231	2	 2.196	5.002	30.934	9.486
232	2	 2.196	0.884	27.546	0.000
233	2	 2.196	1.005	31.320	0.000
234	1	-1.098	0.945	29.433	0.398
235	1	-1.098	0.884	27.546	1.973
236	1	-1.098	1.005	31.320	1.973
237	2	 2.196	0.945	29.433	2.372
238	1	-1.098	2.829	29.312	2.770
239	1	-1.098	0.945	29.433	4.345
240	2	 2.196	2.829	29.312	4.743
241	1	-1.098	2.647	27.433	5.141
242	1	-1.098	3.009	31.181	5.141
243	1	-1.098	2.829	29.312	6.716
244	2	 2.196	2.647	27.433	7.114
245	2	 2.196	3.010	31.191	7.114
246	1	-1.098	0.884	27.546	7.513
247	1	-1.098	1.005	31.320	7.513
248	1	-1.098	2.647	27.433	9.088
249	1	-1.098	3.010	31.191	9.088
250	2	 2.196	0.884	27.546	9.486
251	2	 2.196	1.005	31.320	9.486
252	2	 2.196	-2.645	27.433	0.000
253	2	 2.196	-3.008	31.191	0.000
254	1	-1.098	-2.827	29.312	0.398
255	1	-1.098	-2.645	27.433	1.973
256	1	-1.098	-3.008	31.191	1.973
257	2	 2.196	-2.827	29.312	2.372
258	1	-1.098	-0.943	29.433	2.770
259	1	-1.098	-2.827	29.312	4.345
260	2	 2.196	-0.943	29.433	4.743
261	1	-1.098	-0.882	27.546	5.141
262	1	-1.098	-1.003	31.310	5.141
263	1	-1.098	-0.943	29.433	6.716
264	2	 2.196	-0.882	27.546	7.114
265	2	 2.196	-1.003	31.320	7.114
266	1	-1.098	-2.645	27.433	7.513
267	1	-1.098	-3.008	31.191	7.513
268	1	-1.098	-0.882	27.546	9.088
269	1	-1.098	-1.003	31.320	9.088
270	2	 2.196	-2.645	27.433	9.486
271	2	 2.196	-3.008	31.191	9.486
272	2	 2.196	-6.132	26.869	0.000
273	2	 2.196	-6.972	30.551	0.000
274	1	-1.098	-6.552	28.710	0.398
275	1	-1.098	-6.132	26.869	1.973
276	1	-1.098	-6.972	30.551	1.973
277	2	 2.196	-6.552	28.710	2.372
278	1	-1.098	-4.699	29.071	2.770
279	1	-1.098	-6.552	28.710	4.345
280	2	 2.196	-4.699	29.071	4.743
281	1	-1.098	-4.398	27.207	5.141
282	1	-1.098	-4.998	30.925	5.141
283	1	-1.098	-4.699	29.071	6.716
284	2	 2.196	-4.398	27.207	7.114
285	2	 2.196	-5.000	30.935	7.114
286	1	-1.098	-6.132	26.869	7.513
287	1	-1.098	-6.972	30.551	7.513
288	1	-1.098	-4.398	27.207	9.088
289	1	-1.098	-5.000	30.935	9.088
290	2	 2.196	-6.132	26.869	9.486
291	2	 2.196	-6.972	30.551	9.486
292	2	 2.196	-9.517	25.865	0.000
293	2	 2.196	-10.821	29.408	0.000
294	1	-1.098	-10.169	27.637	0.398
295	1	-1.098	-9.517	25.865	1.973
296	1	-1.098	-10.821	29.408	1.973
297	2	 2.196	-10.169	27.637	2.372
298	1	-1.098	-8.378	28.231	2.770
299	1	-1.098	-10.169	27.637	4.345
300	2	 2.196	-8.378	28.231	4.743
301	1	-1.098	-7.841	26.421	5.141
302	1	-1.098	-8.912	30.032	5.141
303	1	-1.098	-8.378	28.231	6.716
304	2	 2.196	-7.841	26.421	7.114
305	2	 2.196	-8.915	30.041	7.114
306	1	-1.098	-9.517	25.865	7.513
307	1	-1.098	-10.821	29.408	7.513
308	1	-1.098	-7.841	26.421	9.088
309	1	-1.098	-8.915	30.041	9.088
310	2	 2.196	-9.517	25.865	9.486
311	2	 2.196	-10.821	29.408	9.486
312	2	 2.196	-12.747	24.435	0.000
313	2	 2.196	-14.493	27.783	0.000
314	1	-1.098	-13.620	26.109	0.398
315	1	-1.098	-12.747	24.435	1.973
316	1	-1.098	-14.493	27.783	1.973
317	2	 2.196	-13.620	26.109	2.372
318	1	-1.098	-11.919	26.928	2.770
319	1	-1.098	-13.620	26.109	4.345
320	2	 2.196	-11.919	26.928	4.743
321	1	-1.098	-11.155	25.202	5.141
322	1	-1.098	-12.679	28.646	5.141
323	1	-1.098	-11.919	26.928	6.716
324	2	 2.196	-11.155	25.202	7.114
325	2	 2.196	-12.683	28.655	7.114
326	1	-1.098	-12.747	24.435	7.513
327	1	-1.098	-14.493	27.783	7.513
328	1	-1.098	-11.155	25.202	9.088
329	1	-1.098	-12.683	28.655	9.088
330	2	 2.196	-12.747	24.435	9.486
331	2	 2.196	-14.493	27.783	9.486
332	2	 2.196	-15.767	22.605	0.000
333	2	 2.196	-17.927	25.702	0.000
334	1	-1.098	-16.847	24.153	0.398
335	1	-1.098	-15.767	22.605	1.973
336	1	-1.098	-17.927	25.702	1.973
337	2	 2.196	-16.847	24.153	2.372
338	1	-1.098	-15.265	25.183	2.770
339	1	-1.098	-16.847	24.153	4.345
340	2	 2.196	-15.265	25.183	4.743
341	1	-1.098	-14.286	23.568	5.141
342	1	-1.098	-16.238	26.789	5.141
343	1	-1.098	-15.265	25.183	6.716
344	2	 2.196	-14.286	23.568	7.114
345	2	 2.196	-16.243	26.798	7.114
346	1	-1.098	-15.767	22.605	7.513
347	1	-1.098	-17.927	25.702	7.513
348	1	-1.098	-14.286	23.568	9.088
349	1	-1.098	-16.243	26.798	9.088
350	2	 2.196	-15.767	22.605	9.486
351	2	 2.196	-17.927	25.702	9.486
352	2	 2.196	-18.528	20.403	0.000
353	2	 2.196	-21.066	23.198	0.000
354	1	-1.098	-19.797	21.801	0.398
355	1	-1.098	-18.528	20.403	1.973
356	1	-1.098	-21.066	23.198	1.973
357	2	 2.196	-19.797	21.801	2.372
358	1	-1.098	-18.359	23.024	2.770
359	1	-1.098	-19.797	21.801	4.345
360	2	 2.196	-18.359	23.024	4.743
361	1	-1.098	-17.182	21.548	5.141
362	1	-1.098	-19.530	24.493	5.141
363	1	-1.098	-18.359	23.024	6.716
364	2	 2.196	-17.182	21.548	7.114
365	2	 2.196	-19.537	24.501	7.114
366	1	-1.098	-18.528	20.403	7.513
367	1	-1.098	-21.066	23.198	7.513
368	1	-1.098	-17.182	21.548	9.088
369	1	-1.098	-19.537	24.501	9.088
370	2	 2.196	-18.528	20.403	9.486
371	2	 2.196	-21.066	23.198	9.486
372	2	 2.196	-20.985	17.866	0.000
373	2	 2.196	-23.860	20.314	0.000
374	1	-1.098	-22.422	19.090	0.398
375	1	-1.098	-20.985	17.866	1.973
376	1	-1.098	-23.860	20.314	1.973
377	2	 2.196	-22.422	19.090	2.372
378	1	-1.098	-21.153	20.488	2.770
379	1	-1.098	-22.422	19.090	4.345
380	2	 2.196	-21.153	20.488	4.743
381	1	-1.098	-19.797	19.174	5.141
382	1	-1.098	-22.502	21.794	5.141
383	1	-1.098	-21.153	20.488	6.716
384	2	 2.196	-19.797	19.174	7.114
385	2	 2.196	-22.509	21.801	7.114
386	1	-1.098	-20.985	17.866	7.513
387	1	-1.098	-23.860	20.314	7.513
388	1	-1.098	-19.797	19.174	9.088
389	1	-1.098	-22.509	21.801	9.088
390	2	 2.196	-20.985	17.866	9.486
391	2	 2.196	-23.860	20.314	9.486
392	2	 2.196	-23.097	15.036	0.000
393	2	 2.196	-26.261	17.096	0.000
394	1	-1.098	-24.679	16.066	0.398
395	1	-1.098	-23.097	15.036	1.973
396	1	-1.098	-26.261	17.096	1.973
397	2	 2.196	-24.679	16.066	2.372
398	1	-1.098	-23.599	17.615	2.770
399	1	-1.098	-24.679	16.066	4.345
400	2	 2.196	-23.599	17.615	4.743
401	1	-1.098	-22.086	16.485	5.141
402	1	-1.098	-25.104	18.738	5.141
403	1	-1.098	-23.599	17.615	6.716
404	2	 2.196	-22.086	16.485	7.114
405	2	 2.196	-25.112	18.744	7.114
406	1	-1.098	-23.097	15.036	7.513
407	1	-1.098	-26.261	17.096	7.513
408	1	-1.098	-22.086	16.485	9.088
409	1	-1.098	-25.112	18.744	9.088
410	2	 2.196	-23.097	15.036	9.486
411	2	 2.196	-26.261	17.096	9.486
412	2	 2.196	-24.830	11.959	0.000
413	2	 2.196	-28.232	13.598	0.000
414	1	-1.098	-26.531	12.779	0.398
415	1	-1.098	-24.830	11.959	1.973
416	1	-1.098	-28.232	13.598	1.973
417	2	 2.196	-26.531	12.779	2.372
418	1	-1.098	-25.658	14.452	2.770
419	1	-1.098	-26.531	12.779	4.345
420	2	 2.196	-25.658	14.452	4.743
421	1	-1.098	-24.013	13.526	5.141
422	1	-1.098	-27.294	15.374	5.141
423	1	-1.098	-25.658	14.452	6.716
424	2	 2.196	-24.013	13.526	7.114
425	2	 2.196	-27.303	15.379	7.114
426	1	-1.098	-24.830	11.959	7.513
427	1	-1.098	-28.232	13.598	7.513
428	1	-1.098	-24.013	13.526	9.088
429	1	-1.098	-27.303	15.379	9.088
430	2	 2.196	-24.830	11.959	9.486
431	2	 2.196	-28.232	13.598	9.486
432	2	 2.196	-26.156	8.686	0.000
433	2	 2.196	-29.739	9.876	0.000
434	1	-1.098	-27.947	9.281	0.398
435	1	-1.098	-26.156	8.686	1.973
436	1	-1.098	-29.739	9.876	1.973
437	2	 2.196	-27.947	9.281	2.372
438	1	-1.098	-27.295	11.053	2.770
439	1	-1.098	-27.947	9.281	4.345
440	2	 2.196	-27.295	11.053	4.743
441	1	-1.098	-25.545	10.344	5.141
442	1	-1.098	-29.036	11.757	5.141
443	1	-1.098	-27.295	11.053	6.716
444	2	 2.196	-25.545	10.344	7.114
445	2	 2.196	-29.045	11.761	7.114
446	1	-1.098	-26.156	8.686	7.513
447	1	-1.098	-29.739	9.876	7.513
448	1	-1.098	-25.545	10.344	9.088
449	1	-1.098	-29.045	11.761	9.088
450	2	 2.196	-26.156	8.686	9.486
451	2	 2.196	-29.739	9.876	9.486
452	2	 2.196	-27.052	5.270	0.000
453	2	 2.196	-30.758	5.992	0.000
454	1	-1.098	-28.905	5.631	0.398
455	1	-1.098	-27.052	5.270	1.973
456	1	-1.098	-30.758	5.992	1.973
457	2	 2.196	-28.905	5.631	2.372
458	1	-1.098	-28.485	7.471	2.770
459	1	-1.098	-28.905	5.631	4.345
460	2	 2.196	-28.485	7.471	4.743
461	1	-1.098	-26.658	6.992	5.141
462	1	-1.098	-30.301	7.948	5.141
463	1	-1.098	-28.485	7.471	6.716
464	2	 2.196	-26.658	6.992	7.114
465	2	 2.196	-30.311	7.950	7.114
466	1	-1.098	-27.052	5.270	7.513
467	1	-1.098	-30.758	5.992	7.513
468	1	-1.098	-26.658	6.992	9.088
469	1	-1.098	-30.311	7.950	9.088
470	2	 2.196	-27.052	5.270	9.486
471	2	 2.196	-30.758	5.992	9.486
472	2	 2.196	-27.503	1.768	0.000
473	2	 2.196	-31.272	2.010	0.000
474	1	-1.098	-29.387	1.889	0.398
475	1	-1.098	-27.503	1.768	1.973
476	1	-1.098	-31.272	2.010	1.973
477	2	 2.196	-29.387	1.889	2.372
478	1	-1.098	-29.206	3.768	2.770
479	1	-1.098	-29.387	1.889	4.345
480	2	 2.196	-29.206	3.768	4.743
481	1	-1.098	-27.334	3.526	5.141
482	1	-1.098	-31.069	4.008	5.141
483	1	-1.098	-29.206	3.768	6.716
484	2	 2.196	-27.334	3.526	7.114
485	2	 2.196	-31.079	4.009	7.114
486	1	-1.098	-27.503	1.768	7.513
487	1	-1.098	-31.272	2.010	7.513
488	1	-1.098	-27.334	3.526	9.088
489	1	-1.098	-31.079	4.009	9.088
490	2	 2.196	-27.503	1.768	9.486
491	2	 2.196	-31.272	2.010	9.486
492	2	 2.196	-27.504	-1.764	0.000
493	2	 2.196	-31.272	-2.006	0.000
494	1	-1.098	-29.388	-1.885	0.398
495	1	-1.098	-27.504	-1.764	1.973
496	1	-1.098	-31.272	-2.006	1.973
497	2	 2.196	-29.388	-1.885	2.372
498	1	-1.098	-29.448	0.002	2.770
499	1	-1.098	-29.388	-1.885	4.345
500	2	 2.196	-29.448	0.002	4.743
501	1	-1.098	-27.560	0.002	5.141
502	1	-1.098	-31.326	0.002	5.141
503	1	-1.098	-29.448	0.002	6.716
504	2	 2.196	-27.560	0.002	7.114
505	2	 2.196	-31.336	0.002	7.114
506	1	-1.098	-27.504	-1.764	7.513
507	1	-1.098	-31.272	-2.006	7.513
508	1	-1.098	-27.560	0.002	9.088
509	1	-1.098	-31.336	0.002	9.088
510	2	 2.196	-27.504	-1.764	9.486
511	2	 2.196	-31.272	-2.006	9.486
512	2	 2.196	-27.052	-5.266	0.000
513	2	 2.196	-30.759	-5.988	0.000
514	1	-1.098	-28.905	-5.627	0.398
515	1	-1.098	-27.052	-5.266	1.973
516	1	-1.098	-30.759	-5.988	1.973
517	2	 2.196	-28.905	-5.627	2.372
518	1	-1.098	-29.207	-3.764	2.770
519	1	-1.098	-28.905	-5.627	4.345
520	2	 2.196	-29.207	-3.764	4.743
521	1	-1.098	-27.334	-3.522	5.141
522	1	-1.098	-31.069	-4.004	5.141
523	1	-1.098	-29.207	-3.764	6.716
524	2	 2.196	-27.334	-3.522	7.114
525	2	 2.196	-31.079	-4.005	7.114
526	1	-1.098	-27.052	-5.266	7.513
527	1	-1.098	-30.759	-5.988	7.513
528	1	-1.098	-27.334	-3.522	9.088
529	1	-1.098	-31.079	-4.005	9.088
530	2	 2.196	-27.052	-5.266	9.486
531	2	 2.196	-30.759	-5.988	9.486
532	2	 2.196	-26.157	-8.681	0.000
533	2	 2.196	-29.741	-9.870	0.000
534	1	-1.098	-27.949	-9.275	0.398
535	1	-1.098	-26.157	-8.681	1.973
536	1	-1.098	-29.741	-9.870	1.973
537	2	 2.196	-27.949	-9.275	2.372
538	1	-1.098	-28.487	-7.464	2.770
539	1	-1.098	-27.949	-9.275	4.345
540	2	 2.196	-28.487	-7.464	4.743
541	1	-1.098	-26.660	-6.985	5.141
542	1	-1.098	-30.303	-7.940	5.141
543	1	-1.098	-28.487	-7.464	6.716
544	2	 2.196	-26.660	-6.985	7.114
545	2	 2.196	-30.313	-7.942	7.114
546	1	-1.098	-26.157	-8.681	7.513
547	1	-1.098	-29.741	-9.870	7.513
548	1	-1.098	-26.660	-6.985	9.088
549	1	-1.098	-30.313	-7.942	9.088
550	2	 2.196	-26.157	-8.681	9.486
551	2	 2.196	-29.741	-9.870	9.486
552	2	 2.196	-24.831	-11.958	0.000
553	2	 2.196	-28.233	-13.596	0.000
554	1	-1.098	-26.532	-12.777	0.398
555	1	-1.098	-24.831	-11.958	1.973
556	1	-1.098	-28.233	-13.596	1.973
557	2	 2.196	-26.532	-12.777	2.372
558	1	-1.098	-27.297	-11.049	2.770
559	1	-1.098	-26.532	-12.777	4.345
560	2	 2.196	-27.297	-11.049	4.743
561	1	-1.098	-25.547	-10.340	5.141
562	1	-1.098	-29.038	-11.753	5.141
563	1	-1.098	-27.297	-11.049	6.716
564	2	 2.196	-25.547	-10.340	7.114
565	2	 2.196	-29.047	-11.757	7.114
566	1	-1.098	-24.831	-11.958	7.513
567	1	-1.098	-28.233	-13.596	7.513
568	1	-1.098	-25.547	-10.340	9.088
569	1	-1.098	-29.047	-11.757	9.088
570	2	 2.196	-24.831	-11.958	9.486
571	2	 2.196	-28.233	-13.596	9.486
572	2	 2.196	-23.101	-15.030	0.000
573	2	 2.196	-26.266	-17.089	0.000
574	1	-1.098	-24.684	-16.060	0.398
575	1	-1.098	-23.101	-15.030	1.973
576	1	-1.098	-26.266	-17.089	1.973
577	2	 2.196	-24.684	-16.060	2.372
578	1	-1.098	-25.658	-14.452	2.770
579	1	-1.098	-24.684	-16.060	4.345
580	2	 2.196	-25.658	-14.452	4.743
581	1	-1.098	-24.013	-13.526	5.141
582	1	-1.098	-27.294	-15.374	5.141
583	1	-1.098	-25.658	-14.452	6.716
584	2	 2.196	-24.013	-13.526	7.114
585	2	 2.196	-27.303	-15.379	7.114
586	1	-1.098	-23.101	-15.030	7.513
587	1	-1.098	-26.266	-17.089	7.513
588	1	-1.098	-24.013	-13.526	9.088
589	1	-1.098	-27.303	-15.379	9.088
590	2	 2.196	-23.101	-15.030	9.486
591	2	 2.196	-26.266	-17.089	9.486
592	2	 2.196	-20.987	-17.864	0.000
593	2	 2.196	-23.862	-20.311	0.000
594	1	-1.098	-22.425	-19.087	0.398
595	1	-1.098	-20.987	-17.864	1.973
596	1	-1.098	-23.862	-20.311	1.973
597	2	 2.196	-22.425	-19.087	2.372
598	1	-1.098	-23.603	-17.610	2.770
599	1	-1.098	-22.425	-19.087	4.345
600	2	 2.196	-23.603	-17.610	4.743
601	1	-1.098	-22.090	-16.481	5.141
602	1	-1.098	-25.108	-18.733	5.141
603	1	-1.098	-23.603	-17.610	6.716
604	2	 2.196	-22.090	-16.481	7.114
605	2	 2.196	-25.116	-18.739	7.114
606	1	-1.098	-20.987	-17.864	7.513
607	1	-1.098	-23.862	-20.311	7.513
608	1	-1.098	-22.090	-16.481	9.088
609	1	-1.098	-25.116	-18.739	9.088
610	2	 2.196	-20.987	-17.864	9.486
611	2	 2.196	-23.862	-20.311	9.486
612	2	 2.196	-18.528	-20.403	0.000
613	2	 2.196	-21.066	-23.198	0.000
614	1	-1.098	-19.797	-21.801	0.398
615	1	-1.098	-18.528	-20.403	1.973
616	1	-1.098	-21.066	-23.198	1.973
617	2	 2.196	-19.797	-21.801	2.372
618	1	-1.098	-21.154	-20.486	2.770
619	1	-1.098	-19.797	-21.801	4.345
620	2	 2.196	-21.154	-20.486	4.743
621	1	-1.098	-19.798	-19.173	5.141
622	1	-1.098	-22.503	-21.793	5.141
623	1	-1.098	-21.154	-20.486	6.716
624	2	 2.196	-19.798	-19.173	7.114
625	2	 2.196	-22.511	-21.800	7.114
626	1	-1.098	-18.528	-20.403	7.513
627	1	-1.098	-21.066	-23.198	7.513
628	1	-1.098	-19.798	-19.173	9.088
629	1	-1.098	-22.511	-21.800	9.088
630	2	 2.196	-18.528	-20.403	9.486
631	2	 2.196	-21.066	-23.198	9.486
632	2	 2.196	-15.771	-22.602	0.000
633	2	 2.196	-17.932	-25.698	0.000
634	1	-1.098	-16.852	-24.150	0.398
635	1	-1.098	-15.771	-22.602	1.973
636	1	-1.098	-17.932	-25.698	1.973
637	2	 2.196	-16.852	-24.150	2.372
638	1	-1.098	-18.366	-23.019	2.770
639	1	-1.098	-16.852	-24.150	4.345
640	2	 2.196	-18.366	-23.019	4.743
641	1	-1.098	-17.188	-21.544	5.141
642	1	-1.098	-19.537	-24.487	5.141
643	1	-1.098	-18.366	-23.019	6.716
644	2	 2.196	-17.188	-21.544	7.114
645	2	 2.196	-19.543	-24.495	7.114
646	1	-1.098	-15.771	-22.602	7.513
647	1	-1.098	-17.932	-25.698	7.513
648	1	-1.098	-17.188	-21.544	9.088
649	1	-1.098	-19.543	-24.495	9.088
650	2	 2.196	-15.771	-22.602	9.486
651	2	 2.196	-17.932	-25.698	9.486
652	2	 2.196	-12.748	-24.434	0.000
653	2	 2.196	-14.495	-27.782	0.000
654	1	-1.098	-13.621	-26.108	0.398
655	1	-1.098	-12.748	-24.434	1.973
656	1	-1.098	-14.495	-27.782	1.973
657	2	 2.196	-13.621	-26.108	2.372
658	1	-1.098	-15.268	-25.181	2.770
659	1	-1.098	-13.621	-26.108	4.345
660	2	 2.196	-15.268	-25.181	4.743
661	1	-1.098	-14.289	-23.567	5.141
662	1	-1.098	-16.242	-26.787	5.141
663	1	-1.098	-15.268	-25.181	6.716
664	2	 2.196	-14.289	-23.567	7.114
665	2	 2.196	-16.247	-26.795	7.114
666	1	-1.098	-12.748	-24.434	7.513
667	1	-1.098	-14.495	-27.782	7.513
668	1	-1.098	-14.289	-23.567	9.088
669	1	-1.098	-16.247	-26.795	9.088
670	2	 2.196	-12.748	-24.434	9.486
671	2	 2.196	-14.495	-27.782	9.486
672	2	 2.196	-9.524	-25.862	0.000
673	2	 2.196	-10.829	-29.405	0.000
674	1	-1.098	-10.177	-27.634	0.398
675	1	-1.098	-9.524	-25.862	1.973
676	1	-1.098	-10.829	-29.405	1.973
677	2	 2.196	-10.177	-27.634	2.372
678	1	-1.098	-11.919	-26.928	2.770
679	1	-1.098	-10.177	-27.634	4.345
680	2	 2.196	-11.919	-26.928	4.743
681	1	-1.098	-11.155	-25.202	5.141
682	1	-1.098	-12.679	-28.646	5.141
683	1	-1.098	-11.919	-26.928	6.716
684	2	 2.196	-11.155	-25.202	7.114
685	2	 2.196	-12.683	-28.655	7.114
686	1	-1.098	-9.524	-25.862	7.513
687	1	-1.098	-10.829	-29.405	7.513
688	1	-1.098	-11.155	-25.202	9.088
689	1	-1.098	-12.683	-28.655	9.088
690	2	 2.196	-9.524	-25.862	9.486
691	2	 2.196	-10.829	-29.405	9.486
692	2	 2.196	-6.135	-26.869	0.000
693	2	 2.196	-6.976	-30.550	0.000
694	1	-1.098	-6.556	-28.709	0.398
695	1	-1.098	-6.135	-26.869	1.973
696	1	-1.098	-6.976	-30.550	1.973
697	2	 2.196	-6.556	-28.709	2.372
698	1	-1.098	-8.383	-28.230	2.770
699	1	-1.098	-6.556	-28.709	4.345
700	2	 2.196	-8.383	-28.230	4.743
701	1	-1.098	-7.846	-26.420	5.141
702	1	-1.098	-8.918	-30.030	5.141
703	1	-1.098	-8.383	-28.230	6.716
704	2	 2.196	-7.846	-26.420	7.114
705	2	 2.196	-8.921	-30.039	7.114
706	1	-1.098	-6.135	-26.869	7.513
707	1	-1.098	-6.976	-30.550	7.513
708	1	-1.098	-7.846	-26.420	9.088
709	1	-1.098	-8.921	-30.039	9.088
710	2	 2.196	-6.135	-26.869	9.486
711	2	 2.196	-6.976	-30.550	9.486
712	2	 2.196	-2.645	-27.433	0.000
713	2	 2.196	-3.008	-31.191	0.000
714	1	-1.098	-2.827	-29.312	0.398
715	1	-1.098	-2.645	-27.433	1.973
716	1	-1.098	-3.008	-31.191	1.973
717	2	 2.196	-2.827	-29.312	2.372
718	1	-1.098	-4.701	-29.071	2.770
719	1	-1.098	-2.827	-29.312	4.345
720	2	 2.196	-4.701	-29.071	4.743
721	1	-1.098	-4.399	-27.207	5.141
722	1	-1.098	-5.001	-30.924	5.141
723	1	-1.098	-4.701	-29.071	6.716
724	2	 2.196	-4.399	-27.207	7.114
725	2	 2.196	-5.002	-30.934	7.114
726	1	-1.098	-2.645	-27.433	7.513
727	1	-1.098	-3.008	-31.191	7.513
728	1	-1.098	-4.399	-27.207	9.088
729	1	-1.098	-5.002	-30.934	9.088
730	2	 2.196	-2.645	-27.433	9.486
731	2	 2.196	-3.008	-31.191	9.486
732	2	 2.196	0.879	-27.546	0.000
733	2	 2.196	0.999	-31.320	0.000
734	1	-1.098	0.939	-29.433	0.398
735	1	-1.098	0.879	-27.546	1.973
736	1	-1.098	0.999	-31.320	1.973
737	2	 2.196	0.939	-29.433	2.372
738	1	-1.098	-0.951	-29.433	2.770
739	1	-1.098	0.939	-29.433	4.345
740	2	 2.196	-0.951	-29.433	4.743
741	1	-1.098	-0.890	-27.546	5.141
742	1	-1.098	-1.011	-31.310	5.141
743	1	-1.098	-0.951	-29.433	6.716
744	2	 2.196	-0.890	-27.546	7.114
745	2	 2.196	-1.012	-31.320	7.114
746	1	-1.098	0.879	-27.546	7.513
747	1	-1.098	0.999	-31.320	7.513
748	1	-1.098	-0.890	-27.546	9.088
749	1	-1.098	-1.012	-31.320	9.088
750	2	 2.196	0.879	-27.546	9.486
751	2	 2.196	0.999	-31.320	9.486
752	2	 2.196	4.398	-27.207	0.000
753	2	 2.196	5.000	-30.935	0.000
754	1	-1.098	4.699	-29.071	0.398
755	1	-1.098	4.398	-27.207	1.973
756	1	-1.098	5.000	-30.935	1.973
757	2	 2.196	4.699	-29.071	2.372
758	1	-1.098	2.825	-29.312	2.770
759	1	-1.098	4.699	-29.071	4.345
760	2	 2.196	2.825	-29.312	4.743
761	1	-1.098	2.644	-27.433	5.141
762	1	-1.098	3.005	-31.182	5.141
763	1	-1.098	2.825	-29.312	6.716
764	2	 2.196	2.644	-27.433	7.114
765	2	 2.196	3.006	-31.192	7.114
766	1	-1.098	4.398	-27.207	7.513
767	1	-1.098	5.000	-30.935	7.513
768	1	-1.098	2.644	-27.433	9.088
769	1	-1.098	3.006	-31.192	9.088
770	2	 2.196	4.398	-27.207	9.486
771	2	 2.196	5.000	-30.935	9.486
772	2	 2.196	7.835	-26.423	0.000
773	2	 2.196	8.909	-30.043	0.000
774	1	-1.098	8.372	-28.233	0.398
775	1	-1.098	7.835	-26.423	1.973
776	1	-1.098	8.909	-30.043	1.973
777	2	 2.196	8.372	-28.233	2.372
778	1	-1.098	6.554	-28.710	2.770
779	1	-1.098	8.372	-28.233	4.345
780	2	 2.196	6.554	-28.710	4.743
781	1	-1.098	6.133	-26.869	5.141
782	1	-1.098	6.972	-30.541	5.141
783	1	-1.098	6.554	-28.710	6.716
784	2	 2.196	6.133	-26.869	7.114
785	2	 2.196	6.974	-30.550	7.114
786	1	-1.098	7.835	-26.423	7.513
787	1	-1.098	8.909	-30.043	7.513
788	1	-1.098	6.133	-26.869	9.088
789	1	-1.098	6.974	-30.550	9.088
790	2	 2.196	7.835	-26.423	9.486
791	2	 2.196	8.909	-30.043	9.486
792	2	 2.196	11.153	-25.203	0.000
793	2	 2.196	12.681	-28.656	0.000
794	1	-1.098	11.917	-26.929	0.398
795	1	-1.098	11.153	-25.203	1.973
796	1	-1.098	12.681	-28.656	1.973
797	2	 2.196	11.917	-26.929	2.372
798	1	-1.098	10.165	-27.638	2.770
799	1	-1.098	11.917	-26.929	4.345
800	2	 2.196	10.165	-27.638	4.743
801	1	-1.098	9.514	-25.866	5.141
802	1	-1.098	10.814	-29.400	5.141
803	1	-1.098	10.165	-27.638	6.716
804	2	 2.196	9.514	-25.866	7.114
805	2	 2.196	10.817	-29.410	7.114
806	1	-1.098	11.153	-25.203	7.513
807	1	-1.098	12.681	-28.656	7.513
808	1	-1.098	9.514	-25.866	9.088
809	1	-1.098	10.817	-29.410	9.088
810	2	 2.196	11.153	-25.203	9.486
811	2	 2.196	12.681	-28.656	9.486
812	2	 2.196	14.287	-23.568	0.000
813	2	 2.196	16.245	-26.796	0.000
814	1	-1.098	15.266	-25.182	0.398
815	1	-1.098	14.287	-23.568	1.973
816	1	-1.098	16.245	-26.796	1.973
817	2	 2.196	15.266	-25.182	2.372
818	1	-1.098	13.620	-26.109	2.770
819	1	-1.098	15.266	-25.182	4.345
820	2	 2.196	13.620	-26.109	4.743
821	1	-1.098	12.747	-24.435	5.141
822	1	-1.098	14.488	-27.774	5.141
823	1	-1.098	13.620	-26.109	6.716
824	2	 2.196	12.747	-24.435	7.114
825	2	 2.196	14.493	-27.783	7.114
826	1	-1.098	14.287	-23.568	7.513
827	1	-1.098	16.245	-26.796	7.513
828	1	-1.098	12.747	-24.435	9.088
829	1	-1.098	14.493	-27.783	9.088
830	2	 2.196	14.287	-23.568	9.486
831	2	 2.196	16.245	-26.796	9.486
832	2	 2.196	17.179	-21.551	0.000
833	2	 2.196	19.533	-24.503	0.000
834	1	-1.098	18.356	-23.027	0.398
835	1	-1.098	17.179	-21.551	1.973
836	1	-1.098	19.533	-24.503	1.973
837	2	 2.196	18.356	-23.027	2.372
838	1	-1.098	16.842	-24.157	2.770
839	1	-1.098	18.356	-23.027	4.345
840	2	 2.196	16.842	-24.157	4.743
841	1	-1.098	15.762	-22.608	5.141
842	1	-1.098	17.916	-25.697	5.141
843	1	-1.098	16.842	-24.157	6.716
844	2	 2.196	15.762	-22.608	7.114
845	2	 2.196	17.921	-25.706	7.114
846	1	-1.098	17.179	-21.551	7.513
847	1	-1.098	19.533	-24.503	7.513
848	1	-1.098	15.762	-22.608	9.088
849	1	-1.098	17.921	-25.706	9.088
850	2	 2.196	17.179	-21.551	9.486
851	2	 2.196	19.533	-24.503	9.486
852	2	 2.196	19.797	-19.174	0.000
853	2	 2.196	22.509	-21.801	0.000
854	1	-1.098	21.153	-20.488	0.398
855	1	-1.098	19.797	-19.174	1.973
856	1	-1.098	22.509	-21.801	1.973
857	2	 2.196	21.153	-20.488	2.372
858	1	-1.098	19.795	-21.802	2.770
859	1	-1.098	21.153	-20.488	4.345
860	2	 2.196	19.795	-21.802	4.743
861	1	-1.098	18.526	-20.404	5.141
862	1	-1.098	21.058	-23.193	5.141
863	1	-1.098	19.795	-21.802	6.716
864	2	 2.196	18.526	-20.404	7.114
865	2	 2.196	21.065	-23.200	7.114
866	1	-1.098	19.797	-19.174	7.513
867	1	-1.098	22.509	-21.801	7.513
868	1	-1.098	18.526	-20.404	9.088
869	1	-1.098	21.065	-23.200	9.088
870	2	 2.196	19.797	-19.174	9.486
871	2	 2.196	22.509	-21.801	9.486
872	2	 2.196	22.083	-16.490	0.000
873	2	 2.196	25.108	-18.749	0.000
874	1	-1.098	23.596	-17.619	0.398
875	1	-1.098	22.083	-16.490	1.973
876	1	-1.098	25.108	-18.749	1.973
877	2	 2.196	23.596	-17.619	2.372
878	1	-1.098	22.423	-19.089	2.770
879	1	-1.098	23.596	-17.619	4.345
880	2	 2.196	22.423	-19.089	4.743
881	1	-1.098	20.986	-17.865	5.141
882	1	-1.098	23.853	-20.306	5.141
883	1	-1.098	22.423	-19.089	6.716
884	2	 2.196	20.986	-17.865	7.114
885	2	 2.196	23.861	-20.313	7.114
886	1	-1.098	22.083	-16.490	7.513
887	1	-1.098	25.108	-18.749	7.513
888	1	-1.098	20.986	-17.865	9.088
889	1	-1.098	23.861	-20.313	9.088
890	2	 2.196	22.083	-16.490	9.486
891	2	 2.196	25.108	-18.749	9.486
892	2	 2.196	24.012	-13.527	0.000